ITEM: TIMESTEP
0
ITEM: NUMBER OF ATOMS
131
ITEM: BOX BOUNDS pp pp pp
-2.0000000000000000e+02 2.0000000000000000e+02
-2.0000000000000000e+02 2.0000000000000000e+02
-2.0000000000000000e+02 2.0000000000000000e+02
ITEM: ATOMS id type mol x y z
1 1 1 -0.639306 2.01553 0.869707
2 1 1 -0.591011 17.3025 -0.0231546
3 1 1 -15.6106 -7.40076 -2.25276
4 1 1 15.5907 -6.01526 1.04712
5 1 1 16.6593 21.2 2.03447
6 1 1 -10.7226 29.9589 -0.89041
7 1 1 -28.1252 -1.19888 2.44038
8 1 1 -12.8955 -24.4928 0.587757
9 1 1 19.1704 -21.6203 -0.12883
10 1 1 33.5519 -4.83457 -1.89177
11 1 1 -0.0132721 3.24081 1.24465
12 1 1 0.487567 4.43003 1.42402
13 1 1 1.22495 5.50666 1.41173
14 1 1 1.99209 6.56311 1.31626
15 1 1 2.74957 7.66756 1.23129
16 1 1 3.39899 8.77227 1.00875
17 1 1 3.79853 9.98402 0.705917
18 1 1 4.04155 11.2455 0.541453
19 1 1 3.8916 12.5383 0.394095
20 1 1 3.34037 13.7135 0.442041
21 1 1 2.56085 14.7901 0.333061
22 1 1 1.56868 15.6471 0.0867848
23 1 1 0.538542 16.4332 -0.0318359
24 1 1 -1.74441 1.50889 1.56087
25 1 1 -2.56538 0.655457 2.06098
26 1 1 -3.37338 -0.271799 2.46704
27 1 1 -4.03555 -1.37508 2.74928
28 1 1 -4.82646 -2.4399 2.76389
29 1 1 -5.78231 -3.3097 2.39755
30 1 1 -6.98343 -3.72568 2.10493
31 1 1 -8.18096 -3.87031 1.55884
32 1 1 -9.4159 -4.06333 1.12571
33 1 1 -10.5801 -4.40157 0.614102
34 1 1 -11.6239 -4.70595 -0.0847261
35 1 1 -12.6266 -5.14149 -0.826945
36 1 1 -13.7285 -5.61977 -1.36864
37 1 1 -14.7167 -6.38495 -1.65424
38 1 1 -0.104753 1.24768 -0.227875
39 1 1 0.692297 0.726008 -1.08609
40 1 1 1.67878 0.110169 -1.63577
41 1 1 2.74471 -0.65753 -1.85661
42 1 1 3.80991 -1.41121 -1.66261
43 1 1 4.99724 -1.94232 -1.34239
44 1 1 6.16364 -2.37692 -0.963255
45 1 1 7.33581 -2.79945 -0.525922
46 1 1 8.48945 -3.0768 0.000364465
47 1 1 9.66702 -3.49165 0.473334
48 1 1 10.8842 -3.74231 0.941331
49 1 1 12.1535 -3.90669 1.20284
50 1 1 13.3681 -4.4647 1.22465
51 1 1 14.5202 -5.07902 1.13936
52 1 1 -0.393696 18.6848 0.113683
53 1 1 0.149339 19.8582 0.131457
54 1 1 0.882487 20.9727 0.0464508
55 1 1 1.82751 21.8659 -0.216006
56 1 1 2.88614 22.5596 -0.483004
57 1 1 4.16488 22.9886 -0.567007
58 1 1 5.45085 23.0312 -0.509156
59 1 1 6.75755 22.8872 -0.466719
60 1 1 8.08869 22.7901 -0.539422
61 1 1 9.32747 22.6119 -0.223451
62 1 1 10.5298 22.2993 0.112638
63 1 1 11.7286 21.9884 0.528716
64 1 1 12.9846 21.8929 0.980268
65 1 1 14.2538 21.7533 1.30467
66 1 1 15.5316 21.4605 1.68687
67 1 1 -1.91112 16.7847 -0.197034
68 1 1 -3.19156 16.6199 -0.35211
69 1 1 -4.50007 16.6083 -0.630004
70 1 1 -5.81188 16.7953 -0.775281
71 1 1 -7.03996 17.2312 -0.765387
72 1 1 -8.20389 17.8202 -0.74253
73 1 1 -9.27573 18.5935 -0.839249
74 1 1 -10.0816 19.6094 -0.879533
75 1 1 -10.6855 20.7971 -0.871187
76 1 1 -10.9437 22.1108 -0.968111
77 1 1 -10.8741 23.4725 -0.891086
78 1 1 -10.9114 24.7704 -0.820182
79 1 1 -10.8083 26.0767 -0.903504
80 1 1 -10.7503 27.3921 -1.05191
81 1 1 -10.6817 28.7464 -0.977169
82 1 1 -16.9674 -7.08702 -2.48526
83 1 1 -18.2567 -6.81651 -2.6502
84 1 1 -19.5221 -6.41832 -2.69173
85 1 1 -20.8282 -6.17231 -2.61616
86 1 1 -22.0325 -5.75309 -2.26876
87 1 1 -23.1328 -5.25978 -1.76807
88 1 1 -24.2264 -4.85165 -1.09934
89 1 1 -25.1901 -4.35439 -0.358167
90 1 1 -25.9803 -3.73783 0.475216
91 1 1 -26.6899 -2.91821 1.20377
92 1 1 -27.456 -2.00836 1.81986
93 1 1 -15.0564 -8.67208 -2.47881
94 1 1 -14.2492 -9.72317 -2.35628
95 1 1 -13.5233 -10.7055 -2.00014
96 1 1 -12.9283 -11.8356 -1.69951
97 1 1 -12.5775 -13.0562 -1.32924
98 1 1 -12.2333 -14.2765 -1.04057
99 1 1 -12.1606 -15.5299 -0.646521
100 1 1 -12.2568 -16.7855 -0.441832
101 1 1 -12.2393 -18.0393 -0.0832257
102 1 1 -12.298 -19.3439 0.121444
103 1 1 -12.5782 -20.6271 0.180767
104 1 1 -12.6064 -21.9602 0.261608
105 1 1 -12.6302 -23.2912 0.331985
106 1 1 16.8807 -5.67874 1.52682
107 1 1 18.1335 -5.69115 1.90651
108 1 1 19.3652 -6.08398 2.26267
109 1 1 20.6482 -6.48815 2.19615
110 1 1 21.9001 -6.75532 2.28238
111 1 1 23.2067 -7.00213 2.35891
112 1 1 24.4354 -7.13486 2.00417
113 1 1 25.7249 -7.2447 1.68909
114 1 1 27.0073 -7.13422 1.45425
115 1 1 28.2649 -6.98488 1.14017
116 1 1 29.4377 -6.67628 0.620012
117 1 1 30.4308 -6.11938 0.0292493
118 1 1 31.4575 -5.59007 -0.539725
119 1 1 32.6038 -5.09891 -1.14509
120 1 1 15.3426 -7.29546 0.47721
121 1 1 15.2901 -8.44754 -0.0775463
122 1 1 15.1607 -9.6213 -0.635203
123 1 1 15.1873 -10.8388 -1.09702
124 1 1 15.2581 -12.127 -1.48952
125 1 1 15.6817 -13.3383 -1.72103
126 1 1 16.1069 -14.5761 -1.64529
127 1 1 16.5823 -15.7813 -1.426
128 1 1 17.0679 -16.9799 -1.37448
129 1 1 17.6938 -18.1857 -1.17578
130 1 1 18.2856 -19.2978 -0.863041
131 1 1 18.8224 -20.4899 -0.473916
ITEM: TIMESTEP
10000
ITEM: NUMBER OF ATOMS
131
ITEM: BOX BOUNDS pp pp pp
-2.0000000000000000e+02 2.0000000000000000e+02
-2.0000000000000000e+02 2.0000000000000000e+02
-2.0000000000000000e+02 2.0000000000000000e+02
ITEM: ATOMS id type mol x y z
1 1 1 -0.142917 1.30509 3.2066
2 1 1 -0.272365 18.4117 -2.18199
3 1 1 -16.2293 -6.12422 -1.93434
4 1 1 16.4026 -6.07674 1.02591
5 1 1 18.0294 24.3558 1.78409
6 1 1 -14.3698 30.5676 1.23758
7 1 1 -28.3278 -1.5964 4.69197
8 1 1 -11.2293 -23.1948 0.972224
9 1 1 16.5434 -22.4339 -2.77318
10 1 1 35.3443 -9.19883 0.960024
11 1 1 -0.061137 2.72166 3.18006
12 1 1 0.228488 3.93489 2.78841
13 1 1 0.451945 5.12956 2.32459
14 1 1 0.682358 6.32234 1.80824
15 1 1 1.18244 7.50598 1.45457
16 1 1 1.58664 8.65051 0.975437
17 1 1 1.66625 9.91452 0.678097
18 1 1 1.74425 11.154 0.290837
19 1 1 1.69836 12.3891 -0.104977
20 1 1 1.31906 13.592 -0.485346
21 1 1 0.983393 14.7779 -0.953697
22 1 1 0.557003 15.9473 -1.43486
23 1 1 0.203896 17.1472 -1.73179
24 1 1 -1.2889 0.650468 3.69766
25 1 1 -2.29345 -0.0936575 4.06088
26 1 1 -3.27679 -0.911236 4.25317
27 1 1 -4.25375 -1.80468 4.22615
28 1 1 -5.35446 -2.53724 4.1483
29 1 1 -6.48819 -3.16003 3.99718
30 1 1 -7.60193 -3.6746 3.52861
31 1 1 -8.67561 -3.96685 2.80505
32 1 1 -9.71823 -4.18457 2.03685
33 1 1 -10.8425 -4.485 1.37183
34 1 1 -11.9246 -4.54882 0.630676
35 1 1 -13.049 -4.66139 -0.00829542
36 1 1 -14.098 -4.92681 -0.734724
37 1 1 -15.1737 -5.37001 -1.31647
38 1 1 0.919815 0.49553 2.6165
39 1 1 1.97951 0.214101 1.93156
40 1 1 3.1489 0.0935973 1.30042
41 1 1 4.28523 0.0759499 0.669481
42 1 1 5.52095 -0.0657707 0.248211
43 1 1 6.75805 -0.163271 -0.12668
44 1 1 8.038 -0.335017 -0.422078
45 1 1 9.26889 -0.657742 -0.64659
46 1 1 10.4535 -1.22298 -0.767217
47 1 1 11.6434 -1.80448 -0.608642
48 1 1 12.7338 -2.4791 -0.359335
49 1 1 13.7471 -3.21928 -0.0128328
50 1 1 14.6845 -4.07979 0.417363
51 1 1 15.468 -5.00311 0.712327
52 1 1 0.649621 19.3259 -2.7369
53 1 1 1.50771 20.2784 -3.06397
54 1 1 2.46412 21.1437 -3.26246
55 1 1 3.56363 21.8991 -3.21521
56 1 1 4.77063 22.4669 -3.10128
57 1 1 6.05622 22.7148 -2.88737
58 1 1 7.31715 23.1315 -2.76434
59 1 1 8.61874 23.3225 -2.44318
60 1 1 9.85395 23.5453 -2.08643
61 1 1 11.0709 23.6893 -1.5615
62 1 1 12.2864 23.8921 -1.15226
63 1 1 13.4379 23.9595 -0.534482
64 1 1 14.6375 24.0065 -0.000961571
65 1 1 15.7784 24.2065 0.586656
66 1 1 16.9574 24.3128 1.22728
67 1 1 -1.66434 18.7828 -2.04625
68 1 1 -2.92189 19.0316 -1.77451
69 1 1 -4.21142 19.0353 -1.57022
70 1 1 -5.5045 19.1605 -1.34149
71 1 1 -6.80836 19.3752 -1.18109
72 1 1 -8.04748 19.8673 -1.11686
73 1 1 -9.16316 20.5096 -0.988085
74 1 1 -10.1958 21.2895 -0.66938
75 1 1 -11.0473 22.206 -0.193942
76 1 1 -11.7557 23.2936 0.05517
77 1 1 -12.4092 24.4049 0.344258
78 1 1 -12.7995 25.6283 0.474312
79 1 1 -13.1241 26.9232 0.568779
80 1 1 -13.4023 28.1842 0.711046
81 1 1 -13.8754 29.4174 0.940503
82 1 1 -17.5325 -5.57533 -2.05591
83 1 1 -18.7572 -5.10823 -2.14596
84 1 1 -19.9512 -4.56882 -1.99716
85 1 1 -21.12 -4.02935 -1.72803
86 1 1 -22.25 -3.50041 -1.39446
87 1 1 -23.3287 -2.89935 -0.920651
88 1 1 -24.3712 -2.36894 -0.294187
89 1 1 -25.2923 -1.91032 0.501518
90 1 1 -26.2471 -1.62928 1.42005
91 1 1 -27.0235 -1.69796 2.49811
92 1 1 -27.7337 -1.65794 3.63424
93 1 1 -15.9227 -7.42319 -2.45455
94 1 1 -15.4047 -8.62202 -2.58996
95 1 1 -14.834 -9.78655 -2.6288
96 1 1 -14.3844 -11.0227 -2.50403
97 1 1 -14.0939 -12.299 -2.32547
98 1 1 -13.8537 -13.6007 -2.21667
99 1 1 -13.5415 -14.8535 -1.98125
100 1 1 -13.2467 -16.1021 -1.62745
101 1 1 -12.9626 -17.3139 -1.23584
102 1 1 -12.7385 -18.5522 -0.761241
103 1 1 -12.4425 -19.7199 -0.316608
104 1 1 -12.1124 -20.9586 0.0730421
105 1 1 -11.6341 -22.0659 0.60562
106 1 1 17.7556 -5.77429 1.37362
107 1 1 19.0603 -5.71586 1.54942
108 1 1 20.3407 -5.62646 1.62028
109 1 1 21.6759 -5.61872 1.63604
110 1 1 22.9464 -5.69914 1.63057
111 1 1 24.3023 -5.83819 1.71044
112 1 1 25.6159 -5.90399 1.70159
113 1 1 26.892 -6.20983 1.93263
114 1 1 28.1226 -6.62852 2.0581
115 1 1 29.4463 -6.79688 2.12231
116 1 1 30.7197 -7.1833 2.07254
117 1 1 31.9483 -7.63372 2.08229
118 1 1 33.1898 -8.0498 1.83124
119 1 1 34.2921 -8.61479 1.33269
120 1 1 15.9591 -7.42554 1.01091
121 1 1 15.628 -8.68406 0.890201
122 1 1 15.292 -9.99481 0.801434
123 1 1 15.1669 -11.2765 0.599766
124 1 1 15.3236 -12.4963 0.211314
125 1 1 15.4085 -13.7202 -0.2604
126 1 1 15.6002 -14.9779 -0.660273
127 1 1 15.7367 -16.2324 -1.07045
128 1 1 15.7654 -17.4976 -1.38787
129 1 1 15.8792 -18.7875 -1.63498
130 1 1 16.0267 -20.046 -1.99162
131 1 1 16.2501 -21.2943 -2.3817
ITEM: TIMESTEP
20000
ITEM: NUMBER OF ATOMS
131
ITEM: BOX BOUNDS pp pp pp
-2.0000000000000000e+02 2.0000000000000000e+02
-2.0000000000000000e+02 2.0000000000000000e+02
-2.0000000000000000e+02 2.0000000000000000e+02
ITEM: ATOMS id type mol x y z
1 1 1 0.471248 1.93959 4.89575
2 1 1 0.363783 18.5111 -1.39644
3 1 1 -15.7359 -6.41524 -1.83825
4 1 1 17.2765 -5.75942 0.15629
5 1 1 19.0573 26.7619 -2.84918
6 1 1 -18.3227 27.596 -1.98018
7 1 1 -29.6544 -4.32597 4.23109
8 1 1 -13.1226 -24.1932 -1.15249
9 1 1 15.5127 -22.1191 -1.42648
10 1 1 32.6633 -11.1135 -3.84303
11 1 1 0.607462 3.34432 5.04171
12 1 1 0.99365 4.58165 4.86553
13 1 1 1.24546 5.81538 4.47113
14 1 1 1.27237 7.01531 3.95262
15 1 1 1.37234 8.1879 3.34333
16 1 1 1.49519 9.23219 2.53748
17 1 1 1.69212 10.2046 1.61347
18 1 1 1.84075 11.0506 0.637646
19 1 1 1.86681 12.2015 -0.0444973
20 1 1 1.6807 13.3837 -0.536644
21 1 1 1.49676 14.6669 -0.894931
22 1 1 1.11655 15.8938 -1.15334
23 1 1 0.772498 17.1201 -1.26077
24 1 1 -0.808248 1.34239 4.92736
25 1 1 -1.86133 0.639249 4.63705
26 1 1 -2.8633 -0.119601 4.28581
27 1 1 -3.92249 -0.823782 3.84086
28 1 1 -4.92511 -1.57417 3.4525
29 1 1 -6.04306 -2.15651 3.20832
30 1 1 -7.18827 -2.72946 2.90611
31 1 1 -8.37093 -3.15984 2.53366
32 1 1 -9.60638 -3.51349 2.13212
33 1 1 -10.7452 -3.78815 1.56763
34 1 1 -11.8367 -3.99162 0.826966
35 1 1 -12.8445 -4.43855 0.125717
36 1 1 -13.7561 -5.04698 -0.598197
37 1 1 -14.6221 -5.72208 -1.28482
38 1 1 1.60232 1.09926 4.68068
39 1 1 2.54437 0.449725 4.08319
40 1 1 3.529 -0.0295199 3.35774
41 1 1 4.50766 -0.530319 2.6397
42 1 1 5.63267 -0.906122 2.05206
43 1 1 6.73653 -1.33864 1.50945
44 1 1 7.89204 -1.62203 0.97815
45 1 1 9.12358 -1.93118 0.563729
46 1 1 10.3367 -2.14274 0.216368
47 1 1 11.6489 -2.43539 0.0994323
48 1 1 12.8914 -2.8132 0.0340883
49 1 1 14.0373 -3.47475 0.0467747
50 1 1 15.1202 -4.19213 -0.057865
51 1 1 16.1819 -4.87142 0.188586
52 1 1 1.31833 19.4973 -1.68092
53 1 1 2.12497 20.4746 -1.96662
54 1 1 3.09619 21.3746 -2.22278
55 1 1 4.16878 22.1363 -2.3526
56 1 1 5.35968 22.67 -2.37767
57 1 1 6.60076 23.0919 -2.26086
58 1 1 7.80509 23.4829 -2.08952
59 1 1 9.00404 23.9793 -2.01367
60 1 1 10.2238 24.4606 -1.81626
61 1 1 11.492 24.7532 -1.96116
62 1 1 12.7916 25.1552 -2.1126
63 1 1 14.0907 25.4002 -2.25816
64 1 1 15.3631 25.6956 -2.33673
65 1 1 16.6396 25.9705 -2.54875
66 1 1 17.8899 26.445 -2.74627
67 1 1 -1.00275 18.8237 -1.1653
68 1 1 -2.23696 19.1458 -1.1599
69 1 1 -3.47576 19.5563 -1.18857
70 1 1 -4.77552 19.8923 -1.28072
71 1 1 -5.94432 20.5082 -1.31104
72 1 1 -7.17158 21.0152 -1.30824
73 1 1 -8.40853 21.4672 -1.22155
74 1 1 -9.5898 22.0744 -1.37532
75 1 1 -10.6898 22.7593 -1.33643
76 1 1 -11.6738 23.6316 -1.51119
77 1 1 -12.721 24.3711 -1.70178
78 1 1 -13.7095 25.2017 -1.88024
79 1 1 -14.8336 25.9072 -1.92825
80 1 1 -15.9719 26.5303 -1.97067
81 1 1 -17.2145 27.036 -1.89967
82 1 1 -17.0421 -5.92277 -1.67072
83 1 1 -18.1416 -5.35117 -1.24383
84 1 1 -19.3553 -4.99515 -0.89895
85 1 1 -20.5462 -4.67039 -0.404763
86 1 1 -21.6746 -4.25545 0.0495433
87 1 1 -22.8652 -3.90468 0.482913
88 1 1 -24.0301 -3.67908 1.03439
89 1 1 -25.1069 -3.76947 1.82063
90 1 1 -26.2468 -3.88507 2.43908
91 1 1 -27.3335 -4.02928 3.15425
92 1 1 -28.5214 -4.23634 3.75879
93 1 1 -15.528 -7.6463 -2.51363
94 1 1 -15.2958 -8.94092 -2.60523
95 1 1 -15.03 -10.211 -2.72509
96 1 1 -14.9016 -11.5245 -2.56462
97 1 1 -14.6594 -12.795 -2.45389
98 1 1 -14.2644 -14.0536 -2.36785
99 1 1 -13.7787 -15.2609 -2.14675
100 1 1 -13.4129 -16.5637 -2.03858
101 1 1 -13.1448 -17.8306 -1.8081
102 1 1 -13.0245 -19.0767 -1.42316
103 1 1 -13.0309 -20.3973 -1.26996
104 1 1 -12.987 -21.666 -1.36076
105 1 1 -13.0278 -23.0009 -1.30449
106 1 1 18.5449 -5.37049 0.666763
107 1 1 19.7832 -5.41664 1.07437
108 1 1 21.0473 -5.56985 1.2757
109 1 1 22.3438 -5.90673 1.39408
110 1 1 23.5597 -6.29662 1.59059
111 1 1 24.8576 -6.55002 1.75053
112 1 1 26.1192 -6.97544 1.81892
113 1 1 27.2791 -7.59324 1.77288
114 1 1 28.4286 -8.19131 1.57007
115 1 1 29.4867 -8.77517 1.14188
116 1 1 30.4401 -9.28126 0.34242
117 1 1 31.199 -9.71723 -0.599053
118 1 1 31.7101 -10.1319 -1.71894
119 1 1 32.2002 -10.6354 -2.84298
120 1 1 17.1543 -7.044 -0.47109
121 1 1 17.1409 -8.25272 -0.867669
122 1 1 16.867 -9.50292 -1.18841
123 1 1 16.6118 -10.7388 -1.60591
124 1 1 16.3816 -12.0245 -1.7911
125 1 1 16.1178 -13.2653 -2.05974
126 1 1 15.6813 -14.5047 -2.16259
127 1 1 15.4251 -15.7831 -2.26395
128 1 1 15.2221 -17.0581 -2.23219
129 1 1 15.0437 -18.379 -2.09635
130 1 1 15.0672 -19.6811 -2.04983
131 1 1 15.2718 -20.9753 -1.7359
ITEM: TIMESTEP
30000
ITEM: NUMBER OF ATOMS
131
ITEM: BOX BOUNDS pp pp pp
-2.0000000000000000e+02 2.0000000000000000e+02
-2.0000000000000000e+02 2.0000000000000000e+02
-2.0000000000000000e+02 2.0000000000000000e+02
ITEM: ATOMS id type mol x y z
1 1 1 0.48878 1.47901 4.31825
2 1 1 0.289741 19.0962 -0.939617
3 1 1 -16.362 -5.41959 -1.52778
4 1 1 18.2826 -6.29201 1.15062
5 1 1 19.6913 25.6523 -1.45203
6 1 1 -18.6678 26.9454 1.85734
7 1 1 -31.0719 -0.779912 0.790228
8 1 1 -11.6197 -22.8981 -0.2494
9 1 1 11.4701 -19.8336 -0.797793
10 1 1 35.0725 -11.2694 -2.60649
11 1 1 0.785523 2.86816 4.14355
12 1 1 1.02621 4.0641 3.82784
13 1 1 1.29374 5.28397 3.37678
14 1 1 1.26897 6.46827 2.85281
15 1 1 1.06233 7.72792 2.54042
16 1 1 0.987584 9.03094 2.31722
17 1 1 0.860115 10.3345 2.14973
18 1 1 0.817358 11.6191 1.9063
19 1 1 0.744025 12.8815 1.43724
20 1 1 0.708567 14.1194 0.975879
21 1 1 0.615325 15.3464 0.49279
22 1 1 0.518618 16.5871 0.0125128
23 1 1 0.529443 17.8137 -0.357931
24 1 1 -0.850165 1.04118 4.54553
25 1 1 -2.11566 0.672809 4.57841
26 1 1 -3.35006 0.337827 4.56457
27 1 1 -4.58683 0.0236246 4.44618
28 1 1 -5.85673 -0.34767 4.27954
29 1 1 -7.07849 -0.711918 3.87023
30 1 1 -8.2473 -1.02066 3.39831
31 1 1 -9.42707 -1.22006 2.87598
32 1 1 -10.4836 -1.46226 2.10204
33 1 1 -11.4284 -1.88193 1.27033
34 1 1 -12.3812 -2.44281 0.53032
35 1 1 -13.396 -3.08613 -0.0278044
36 1 1 -14.3518 -3.83588 -0.55126
37 1 1 -15.2868 -4.54601 -1.10707
38 1 1 1.5354 0.551545 4.1622
39 1 1 2.6854 -0.0920468 4.20444
40 1 1 3.8799 -0.61506 4.11939
41 1 1 5.08118 -1.08889 3.93919
42 1 1 6.33518 -1.47291 3.88839
43 1 1 7.52864 -2.06156 3.75489
44 1 1 8.75696 -2.64388 3.60808
45 1 1 9.98637 -3.05232 3.51031
46 1 1 11.2129 -3.58263 3.47976
47 1 1 12.4198 -3.97845 3.17824
48 1 1 13.5744 -4.50427 2.86427
49 1 1 14.7318 -5.09419 2.62071
50 1 1 15.9444 -5.51872 2.29624
51 1 1 17.1014 -5.84421 1.86186
52 1 1 1.3644 19.9538 -1.32313
53 1 1 2.42895 20.6945 -1.59593
54 1 1 3.477 21.3031 -2.05147
55 1 1 4.67163 21.6849 -2.4333
56 1 1 5.90036 22.1531 -2.71756
57 1 1 7.17337 22.4141 -2.69341
58 1 1 8.45193 22.7667 -2.52481
59 1 1 9.73834 23.0171 -2.4606
60 1 1 11.005 23.3504 -2.27685
61 1 1 12.2283 23.7836 -2.18541
62 1 1 13.4468 24.282 -2.07769
63 1 1 14.7096 24.5932 -1.9061
64 1 1 15.9267 24.8358 -1.46126
65 1 1 17.2357 25.0581 -1.39268
66 1 1 18.5261 25.3703 -1.39536
67 1 1 -1.04338 19.4528 -1.25466
68 1 1 -2.31628 19.7497 -1.34329
69 1 1 -3.55013 20.2218 -1.51085
70 1 1 -4.75949 20.6662 -1.47307
71 1 1 -6.0067 21.1413 -1.44536
72 1 1 -7.2026 21.6101 -1.30652
73 1 1 -8.30004 22.2858 -1.09507
74 1 1 -9.46519 22.8715 -0.82541
75 1 1 -10.5914 23.5554 -0.628733
76 1 1 -11.7213 24.1193 -0.246413
77 1 1 -12.7995 24.7489 0.190129
78 1 1 -13.9746 25.25 0.545353
79 1 1 -15.1948 25.6664 0.85498
80 1 1 -16.3403 26.1208 1.20247
81 1 1 -17.5251 26.5362 1.55261
82 1 1 -17.7201 -4.93001 -1.55886
83 1 1 -18.8364 -4.28181 -1.44824
84 1 1 -20.0525 -3.83079 -1.4305
85 1 1 -21.2369 -3.2643 -1.43128
86 1 1 -22.4468 -2.7453 -1.45532
87 1 1 -23.6827 -2.43024 -1.16429
88 1 1 -24.8984 -1.99978 -0.807065
89 1 1 -26.0986 -1.67226 -0.376561
90 1 1 -27.352 -1.42547 -0.0703384
91 1 1 -28.5855 -1.11666 0.282199
92 1 1 -29.8487 -1.04122 0.609121
93 1 1 -16.0537 -6.78117 -1.78384
94 1 1 -15.7153 -8.02941 -1.96362
95 1 1 -15.4781 -9.33102 -2.08962
96 1 1 -15.1844 -10.6154 -2.12242
97 1 1 -14.7747 -11.8807 -2.05618
98 1 1 -14.0755 -12.9545 -1.78879
99 1 1 -13.5197 -14.0998 -1.50224
100 1 1 -13.2137 -15.3303 -1.18693
101 1 1 -13.0305 -16.614 -0.932646
102 1 1 -12.9202 -17.9467 -0.818978
103 1 1 -12.7156 -19.245 -0.653515
104 1 1 -12.4389 -20.4866 -0.432634
105 1 1 -11.9662 -21.6977 -0.398262
106 1 1 19.4433 -5.46223 1.18561
107 1 1 20.6208 -4.91163 1.29691
108 1 1 21.9051 -4.66214 1.31237
109 1 1 23.213 -4.90147 1.18885
110 1 1 24.4621 -5.26452 1.18429
111 1 1 25.7203 -5.63062 1.09044
112 1 1 26.9621 -6.08298 1.01885
113 1 1 28.1118 -6.68785 0.767622
114 1 1 29.2136 -7.32301 0.554237
115 1 1 30.1863 -8.18527 0.358914
116 1 1 31.1222 -8.93495 -0.192783
117 1 1 31.9949 -9.59563 -0.937833
118 1 1 32.9402 -10.3429 -1.53464
119 1 1 34.0559 -10.7581 -2.09983
120 1 1 18.2462 -7.49907 0.412214
121 1 1 18.195 -8.65757 -0.217929
122 1 1 18.1433 -9.86979 -0.745625
123 1 1 18.2546 -11.1537 -1.1128
124 1 1 18.0859 -12.4137 -1.51316
125 1 1 17.6587 -13.6729 -1.58889
126 1 1 17.2069 -14.9013 -1.66334
127 1 1 16.6001 -16.0652 -1.84499
128 1 1 15.7117 -17.0051 -1.93697
129 1 1 14.7223 -17.9148 -1.8313
130 1 1 13.5664 -18.519 -1.55681
131 1 1 12.4297 -19.1867 -1.27824
ITEM: TIMESTEP
40000
ITEM: NUMBER OF ATOMS
131
ITEM: BOX BOUNDS pp pp pp
-2.0000000000000000e+02 2.0000000000000000e+02
-2.0000000000000000e+02 2.0000000000000000e+02
-2.0000000000000000e+02 2.0000000000000000e+02
ITEM: ATOMS id type mol x y z
1 1 1 0.458753 2.37049 5.10967
2 1 1 0.113478 19.8467 -0.190601
3 1 1 -16.0465 -6.48615 -0.457563
4 1 1 17.43 -6.75085 1.29478
5 1 1 19.5907 27.2649 -1.31368
6 1 1 -18.4407 28.4354 0.027257
7 1 1 -30.6218 -2.3287 -3.29159
8 1 1 -11.4079 -22.8793 2.79958
9 1 1 15.4965 -22.1309 -5.2749
10 1 1 35.2572 -10.19 0.137362
11 1 1 0.438284 3.8219 5.18074
12 1 1 0.456637 5.09116 4.99401
13 1 1 0.46084 6.34086 4.43648
14 1 1 0.732944 7.52023 3.99752
15 1 1 0.68545 8.69715 3.39744
16 1 1 0.586574 9.84954 2.81087
17 1 1 0.510472 11.0359 2.30622
18 1 1 0.363677 12.2917 1.92243
19 1 1 0.272326 13.4292 1.21439
20 1 1 0.15285 14.6293 0.712842
21 1 1 0.206071 15.8442 0.324777
22 1 1 0.183118 17.1531 0.172946
23 1 1 0.243038 18.4373 0.0616426
24 1 1 -0.754082 1.66445 4.80076
25 1 1 -1.88654 0.999397 4.78947
26 1 1 -3.00893 0.329574 4.71623
27 1 1 -4.08493 -0.405688 4.5938
28 1 1 -5.20977 -1.10257 4.49855
29 1 1 -6.45606 -1.41513 4.17721
30 1 1 -7.61773 -1.80419 3.70863
31 1 1 -8.75806 -2.22513 3.28203
32 1 1 -9.87132 -2.78344 2.76075
33 1 1 -11.0015 -3.37212 2.44245
34 1 1 -12.1278 -3.90008 2.04989
35 1 1 -13.1557 -4.47429 1.4431
36 1 1 -14.155 -5.05665 0.806098
37 1 1 -15.03 -5.65481 0.0678359
38 1 1 1.65192 1.62412 5.27625
39 1 1 2.76619 0.965715 5.30885
40 1 1 3.94567 0.327717 5.36613
41 1 1 5.08095 -0.258738 5.09641
42 1 1 6.24324 -0.832324 4.7325
43 1 1 7.33963 -1.46523 4.4198
44 1 1 8.38338 -2.22681 4.24226
45 1 1 9.52593 -2.806 3.91529
46 1 1 10.6539 -3.40897 3.69476
47 1 1 11.7993 -3.93458 3.37799
48 1 1 12.9412 -4.50183 3.00655
49 1 1 14.0163 -5.12799 2.61455
50 1 1 15.1089 -5.71519 2.24669
51 1 1 16.2657 -6.16685 1.87245
52 1 1 1.25786 20.6823 -0.248837
53 1 1 2.34847 21.3058 -0.572917
54 1 1 3.52568 21.8203 -0.966876
55 1 1 4.76453 22.2607 -1.19194
56 1 1 6.00225 22.6959 -1.2948
57 1 1 7.31193 23.0245 -1.34261
58 1 1 8.46849 23.6214 -1.50312
59 1 1 9.75002 24.0082 -1.49183
60 1 1 10.9347 24.4702 -1.30972
61 1 1 12.1719 24.9102 -1.10502
62 1 1 13.4603 25.1987 -1.00058
63 1 1 14.6802 25.6549 -1.09341
64 1 1 15.9419 26.0517 -1.09421
65 1 1 17.214 26.3052 -1.13942
66 1 1 18.4557 26.6866 -1.21314
67 1 1 -1.1807 20.3843 -0.396107
68 1 1 -2.31346 21.0242 -0.406469
69 1 1 -3.45221 21.6984 -0.522689
70 1 1 -4.65027 22.2328 -0.365013
71 1 1 -5.87072 22.6722 -0.285401
72 1 1 -7.13986 23.1537 -0.204066
73 1 1 -8.36041 23.5794 0.0823268
74 1 1 -9.48881 23.9949 0.51976
75 1 1 -10.5722 24.5458 1.11612
76 1 1 -11.6462 25.1633 1.53848
77 1 1 -12.7985 25.7896 1.61432
78 1 1 -13.9945 26.3331 1.69553
79 1 1 -15.2505 26.7795 1.45647
80 1 1 -16.4171 27.1826 1.04929
81 1 1 -17.4325 27.7383 0.369226
82 1 1 -17.4219 -6.10687 -0.252917
83 1 1 -18.5935 -5.64015 -0.097969
84 1 1 -19.8446 -5.22592 -0.115186
85 1 1 -21.1094 -4.79311 -0.079593
86 1 1 -22.3879 -4.57839 -0.23039
87 1 1 -23.6461 -4.29231 -0.447594
88 1 1 -24.8753 -4.05228 -0.833405
89 1 1 -26.0723 -3.62429 -1.17789
90 1 1 -27.259 -3.33583 -1.70324
91 1 1 -28.3941 -2.89699 -2.22595
92 1 1 -29.5168 -2.55974 -2.84586
93 1 1 -15.7149 -7.71619 -1.15034
94 1 1 -15.1219 -8.80919 -1.4926
95 1 1 -14.7825 -10.0593 -1.76153
96 1 1 -14.269 -11.2631 -1.93859
97 1 1 -13.8669 -12.4933 -1.75201
98 1 1 -13.3419 -13.6537 -1.4777
99 1 1 -13.0251 -14.8866 -1.08639
100 1 1 -12.7559 -16.113 -0.703647
101 1 1 -12.5353 -17.3453 -0.303238
102 1 1 -12.3501 -18.5473 0.235203
103 1 1 -12.1471 -19.7272 0.73797
104 1 1 -11.8905 -20.8626 1.29525
105 1 1 -11.6393 -21.917 2.04764
106 1 1 18.6696 -6.02449 1.26843
107 1 1 19.8351 -5.53534 1.00778
108 1 1 21.0879 -5.12591 0.839473
109 1 1 22.3207 -4.71357 0.875486
110 1 1 23.6267 -4.58317 0.957965
111 1 1 24.9377 -4.67292 1.01636
112 1 1 26.2348 -4.96621 0.955351
113 1 1 27.4144 -5.54728 0.82707
114 1 1 28.5266 -6.2144 0.643526
115 1 1 29.6887 -6.7603 0.392568
116 1 1 30.9019 -7.3372 0.40615
117 1 1 32.0358 -8.02239 0.415231
118 1 1 33.2153 -8.59295 0.405761
119 1 1 34.2691 -9.43818 0.365138
120 1 1 17.356 -8.06965 0.77948
121 1 1 17.3249 -9.25259 0.269855
122 1 1 17.3042 -10.5071 -0.16226
123 1 1 17.2462 -11.6735 -0.704076
124 1 1 17.2515 -12.8451 -1.35329
125 1 1 17.0996 -13.9595 -2.04531
126 1 1 17.0067 -15.0691 -2.68218
127 1 1 16.8044 -16.2284 -3.31084
128 1 1 16.5668 -17.303 -4.00978
129 1 1 16.2261 -18.4617 -4.4746
130 1 1 15.7394 -19.6386 -4.77522
131 1 1 15.5503 -20.9148 -5.07522
ITEM: TIMESTEP
50000
ITEM: NUMBER OF ATOMS
131
ITEM: BOX BOUNDS pp pp pp
-2.0000000000000000e+02 2.0000000000000000e+02
-2.0000000000000000e+02 2.0000000000000000e+02
-2.0000000000000000e+02 2.0000000000000000e+02
ITEM: ATOMS id type mol x y z
1 1 1 0.112224 1.75833 4.37585
2 1 1 -1.16143 19.4146 -0.66924
3 1 1 -16.3182 -7.08761 -0.159401
4 1 1 17.1013 -6.65484 1.08289
5 1 1 17.944 27.0094 0.98398
6 1 1 -16.8272 29.9538 6.17958
7 1 1 -30.2657 -0.245056 -0.599487
8 1 1 -11.4582 -22.7121 3.72379
9 1 1 15.8156 -22.6886 -4.17963
10 1 1 36.1169 -8.22664 -0.988004
11 1 1 0.0737677 3.16063 4.15938
12 1 1 -0.094938 4.41787 4.21255
13 1 1 -0.1802 5.74664 4.12716
14 1 1 -0.351446 7.06887 3.94686
15 1 1 -0.519731 8.30108 3.58269
16 1 1 -0.720451 9.59055 3.3486
17 1 1 -0.666869 10.9068 3.12439
18 1 1 -0.697329 12.148 2.64151
19 1 1 -0.80712 13.336 2.06257
20 1 1 -0.883237 14.5612 1.54426
21 1 1 -0.856133 15.7525 1.04952
22 1 1 -0.891137 16.9683 0.515647
23 1 1 -1.07626 18.1471 -0.0324614
24 1 1 -1.13788 1.05723 4.59918
25 1 1 -2.24631 0.455087 4.69293
26 1 1 -3.44478 -0.127339 4.62906
27 1 1 -4.65294 -0.686509 4.69177
28 1 1 -5.93937 -0.990787 4.64619
29 1 1 -7.17471 -1.44217 4.5236
30 1 1 -8.32584 -2.01398 4.25552
31 1 1 -9.5319 -2.48227 4.00676
32 1 1 -10.6377 -3.03614 3.55804
33 1 1 -11.6733 -3.43298 2.85244
34 1 1 -12.6792 -3.93609 2.11264
35 1 1 -13.5641 -4.65557 1.51245
36 1 1 -14.4902 -5.39482 0.91984
37 1 1 -15.3411 -6.23392 0.423336
38 1 1 1.32755 1.05372 4.44825
39 1 1 2.18722 0.0979246 4.63946
40 1 1 3.27157 -0.648072 4.82526
41 1 1 4.40989 -1.29059 4.96265
42 1 1 5.52858 -1.9403 4.87627
43 1 1 6.60586 -2.53945 4.37602
44 1 1 7.82826 -2.92552 4.01927
45 1 1 8.99965 -3.4553 3.7237
46 1 1 10.1429 -3.95615 3.30595
47 1 1 11.3842 -4.17868 3.01665
48 1 1 12.6528 -4.52038 2.88913
49 1 1 13.8459 -4.92752 2.70312
50 1 1 14.9757 -5.38556 2.15645
51 1 1 16.0768 -5.9219 1.72707
52 1 1 0.0430456 20.1297 -1.04357
53 1 1 1.21112 20.5279 -1.2904
54 1 1 2.42744 21.0176 -1.47767
55 1 1 3.56295 21.6925 -1.48965
56 1 1 4.64701 22.4298 -1.64224
57 1 1 5.87489 23.0002 -1.6538
58 1 1 7.10384 23.4072 -1.40064
59 1 1 8.25048 23.8889 -0.912475
60 1 1 9.47114 24.2502 -0.587428
61 1 1 10.6929 24.5275 -0.213837
62 1 1 11.905 24.8685 0.154463
63 1 1 13.1406 25.1359 0.429642
64 1 1 14.3757 25.5555 0.695652
65 1 1 15.607 25.9705 0.653722
66 1 1 16.7964 26.4869 0.787534
67 1 1 -2.43081 20.0367 -0.857506
68 1 1 -3.51048 20.6922 -0.794784
69 1 1 -4.65258 21.3489 -0.659823
70 1 1 -5.66775 22.0835 -0.230624
71 1 1 -6.81283 22.7433 0.105373
72 1 1 -7.99019 23.013 0.614363
73 1 1 -9.19998 23.3959 0.902216
74 1 1 -10.3698 23.8602 1.28985
75 1 1 -11.4501 24.4852 1.67484
76 1 1 -12.388 25.161 2.29108
77 1 1 -13.3474 25.9294 2.72743
78 1 1 -14.2874 26.6653 3.19078
79 1 1 -15.0616 27.5018 3.8565
80 1 1 -15.7789 28.3008 4.56434
81 1 1 -16.3671 29.2034 5.37979
82 1 1 -17.6692 -6.69013 -0.323161
83 1 1 -18.9173 -6.38393 -0.661906
84 1 1 -20.1589 -5.97608 -0.727627
85 1 1 -21.4158 -5.56663 -0.765223
86 1 1 -22.512 -4.85271 -0.830129
87 1 1 -23.5984 -4.10879 -0.944913
88 1 1 -24.4816 -3.18207 -0.720439
89 1 1 -25.5664 -2.41 -0.754703
90 1 1 -26.6773 -1.69735 -0.729451
91 1 1 -27.8227 -1.05544 -0.769824
92 1 1 -29.0758 -0.629324 -0.699126
93 1 1 -15.9084 -8.33469 -0.667704
94 1 1 -15.455 -9.46531 -1.19588
95 1 1 -14.8264 -10.5726 -1.49261
96 1 1 -14.1263 -11.6509 -1.68385
97 1 1 -13.4851 -12.7805 -1.76698
98 1 1 -12.952 -13.9507 -1.572
99 1 1 -12.5239 -15.1097 -1.10611
100 1 1 -12.3327 -16.2015 -0.48432
101 1 1 -12.2149 -17.3185 0.238105
102 1 1 -12.2338 -18.3776 1.01178
103 1 1 -12.2273 -19.4776 1.69957
104 1 1 -11.9083 -20.5819 2.36486
105 1 1 -11.6579 -21.6732 3.09066
106 1 1 18.4242 -6.16619 0.995154
107 1 1 19.7006 -5.88651 0.873618
108 1 1 20.9706 -5.79011 0.469289
109 1 1 22.2071 -5.91809 0.0749079
110 1 1 23.5017 -6.13629 -0.191259
111 1 1 24.7814 -6.30283 -0.423741
112 1 1 26.0915 -6.38447 -0.729679
113 1 1 27.3732 -6.40799 -1.00828
114 1 1 28.6851 -6.53945 -0.991801
115 1 1 29.9356 -6.56497 -1.19731
116 1 1 31.1902 -6.77061 -1.55799
117 1 1 32.4901 -7.01861 -1.54186
118 1 1 33.7452 -7.41546 -1.42311
119 1 1 35.0122 -7.81649 -1.22814
120 1 1 16.7484 -7.89897 0.457194
121 1 1 16.4819 -9.07441 -0.0233845
122 1 1 16.3882 -10.3202 -0.436825
123 1 1 16.3848 -11.5585 -0.791528
124 1 1 16.4136 -12.7992 -1.19124
125 1 1 16.3304 -13.9952 -1.80255
126 1 1 16.118 -15.1589 -2.34292
127 1 1 16.2287 -16.4071 -2.7086
128 1 1 16.1055 -17.6684 -3.04702
129 1 1 15.9317 -18.9137 -3.38872
130 1 1 15.8084 -20.1916 -3.67613
131 1 1 15.7817 -21.5022 -3.89279
ITEM: TIMESTEP
60000
ITEM: NUMBER OF ATOMS
131
ITEM: BOX BOUNDS pp pp pp
-2.0000000000000000e+02 2.0000000000000000e+02
-2.0000000000000000e+02 2.0000000000000000e+02
-2.0000000000000000e+02 2.0000000000000000e+02
ITEM: ATOMS id type mol x y z
1 1 1 1.16257 1.89064 5.67818
2 1 1 -2.48142 18.6436 -0.464888
3 1 1 -15.4033 -7.82321 0.680333
4 1 1 17.1438 -6.70277 -1.04583
5 1 1 14.1876 30.1402 2.3964
6 1 1 -17.004 30.787 5.22959
7 1 1 -29.3216 -1.07554 -0.942769
8 1 1 -9.86367 -24.7462 3.27594
9 1 1 17.1044 -21.8503 -6.90949
10 1 1 36.2349 -6.38479 0.467257
11 1 1 0.877894 3.27666 5.7481
12 1 1 0.494712 4.48574 5.56491
13 1 1 -0.0426239 5.63594 5.1657
14 1 1 -0.393673 6.85285 4.84447
15 1 1 -0.715477 8.05864 4.41293
16 1 1 -1.13387 9.2558 4.07692
17 1 1 -1.49572 10.4609 3.68925
18 1 1 -1.62947 11.6348 3.12693
19 1 1 -1.85451 12.8023 2.58901
20 1 1 -2.06346 13.9814 2.10323
21 1 1 -2.32905 15.2268 1.64483
22 1 1 -2.55947 16.4092 1.10403
23 1 1 -2.49081 17.4627 0.365929
24 1 1 0.110453 0.9531 5.38108
25 1 1 -0.910259 0.232229 5.07038
26 1 1 -1.94238 -0.520792 4.85958
27 1 1 -3.01416 -1.16737 4.45989
28 1 1 -4.18 -1.73125 4.0618
29 1 1 -5.26376 -2.38556 3.7589
30 1 1 -6.46666 -2.88943 3.48352
31 1 1 -7.65025 -3.37016 3.19913
32 1 1 -8.71596 -4.0445 2.82353
33 1 1 -9.82191 -4.69892 2.549
34 1 1 -10.8846 -5.40017 2.22803
35 1 1 -11.9763 -6.02474 1.86336
36 1 1 -13.0955 -6.65042 1.53371
37 1 1 -14.2074 -7.15953 1.03465
38 1 1 2.50712 1.39769 5.78482
39 1 1 3.61785 0.765336 5.82458
40 1 1 4.76764 0.141844 5.76215
41 1 1 5.97569 -0.369721 5.67088
42 1 1 7.08046 -0.958256 5.21653
43 1 1 8.14352 -1.60672 4.69474
44 1 1 9.20344 -2.19564 4.27787
45 1 1 10.3565 -2.52963 3.73878
46 1 1 11.4708 -3.03579 3.20945
47 1 1 12.5558 -3.53705 2.62753
48 1 1 13.4777 -4.08649 1.83388
49 1 1 14.358 -4.6645 1.08297
50 1 1 15.238 -5.32092 0.350008
51 1 1 16.1135 -5.97506 -0.36447
52 1 1 -1.24212 19.0936 -1.00666
53 1 1 -0.16482 19.7587 -1.21714
54 1 1 0.964438 20.4788 -1.22235
55 1 1 2.04208 21.2176 -1.10975
56 1 1 3.14578 21.8574 -0.856628
57 1 1 4.31698 22.4484 -0.607934
58 1 1 5.5348 22.8714 -0.417526
59 1 1 6.78473 23.3127 -0.17747
60 1 1 7.87416 23.9595 0.203954
61 1 1 8.88261 24.6516 0.686605
62 1 1 9.8096 25.5008 1.09774
63 1 1 10.7568 26.4282 1.32096
64 1 1 11.7187 27.2761 1.57326
65 1 1 12.4926 28.2756 1.83837
66 1 1 13.3694 29.1987 2.16933
67 1 1 -3.71669 19.2027 -0.873584
68 1 1 -4.8312 19.8337 -1.18212
69 1 1 -5.9267 20.5475 -1.32212
70 1 1 -6.97782 21.339 -1.31448
71 1 1 -7.89273 22.2218 -1.01205
72 1 1 -8.85529 23.08 -0.684737
73 1 1 -9.9678 23.7579 -0.53444