ITEM: TIMESTEP
0
ITEM: NUMBER OF ATOMS
378
ITEM: BOX BOUNDS pp pp pp
-2.0000000000000000e+02 2.0000000000000000e+02
-2.0000000000000000e+02 2.0000000000000000e+02
-2.0000000000000000e+02 2.0000000000000000e+02
ITEM: ATOMS id type mol x y z
1 1 1 21 21 0
2 1 1 20.1497 21.7934 -0.66627
3 1 1 19.2827 22.5686 -1.29923
4 1 1 18.3985 23.324 -1.89887
5 1 1 17.4966 24.0582 -2.4652
6 1 1 16.5763 24.7692 -2.99822
7 1 1 15.6372 25.4552 -3.49792
8 1 1 14.6789 26.114 -3.96431
9 1 1 13.701 26.7434 -4.39738
10 1 1 12.7032 27.3408 -4.79714
11 1 1 11.6855 27.9035 -5.16359
12 1 1 10.648 28.4289 -5.49673
13 1 1 9.59107 28.914 -5.79655
14 1 1 8.51531 29.3557 -6.06306
15 1 1 7.42162 29.7509 -6.29625
16 1 1 6.31131 30.0967 -6.49613
17 1 1 5.18605 30.39 -6.6627
18 1 1 4.04786 30.6284 -6.79595
19 1 1 2.89916 30.8093 -6.8959
20 1 1 1.74268 30.9311 -6.96252
21 1 1 0.58143 30.9922 -6.99584
22 1 1 -0.58143 30.9922 -6.99584
23 1 1 -1.74268 30.9311 -6.96252
24 1 1 -2.89916 30.8093 -6.8959
25 1 1 -4.04786 30.6284 -6.79595
26 1 1 -5.18605 30.39 -6.6627
27 1 1 -6.31131 30.0967 -6.49613
28 1 1 -7.42162 29.7509 -6.29625
29 1 1 -8.51531 29.3557 -6.06306
30 1 1 -9.59107 28.914 -5.79655
31 1 1 -10.648 28.4289 -5.49673
32 1 1 -11.6855 27.9035 -5.16359
33 1 1 -12.7032 27.3408 -4.79714
34 1 1 -13.701 26.7434 -4.39738
35 1 1 -14.6789 26.114 -3.96431
36 1 1 -15.6372 25.4552 -3.49792
37 1 1 -16.5763 24.7692 -2.99822
38 1 1 -17.4966 24.0582 -2.4652
39 1 1 -18.3985 23.324 -1.89887
40 1 1 -19.2827 22.5686 -1.29923
41 1 1 -20.1497 21.7934 -0.66627
42 1 1 -21 21 0
43 1 1 21 21 0
44 1 1 20.0911 20.7824 0.29447
45 1 1 19.186 20.5492 0.60226
46 1 1 18.2852 20.3003 0.92338
47 1 1 17.3889 20.0353 1.25782
48 1 1 16.4977 19.7541 1.60559
49 1 1 15.6117 19.4565 1.96669
50 1 1 14.7316 19.1421 2.34111
51 1 1 13.8576 18.811 2.72885
52 1 1 12.9902 18.463 3.12992
53 1 1 12.1299 18.0978 3.54432
54 1 1 11.2771 17.7154 3.97204
55 1 1 10.4323 17.3158 4.41309
56 1 1 9.59583 16.8988 4.86746
57 1 1 8.76822 16.4646 5.33516
58 1 1 7.94992 16.0131 5.81618
59 1 1 7.14135 15.5444 6.31053
60 1 1 6.34294 15.0586 6.8182
61 1 1 5.55513 14.5558 7.3392
62 1 1 4.77831 14.0362 7.87353
63 1 1 4.01289 13.4999 8.42118
64 1 1 3.25923 12.9472 8.98215
65 1 1 2.51768 12.3784 9.55645
66 1 1 1.78858 11.7937 10.1441
67 1 1 1.07222 11.1934 10.745
68 1 1 0.36888 10.578 11.3593
69 1 1 -0.32118 9.94767 11.9869
70 1 1 -0.99776 9.30292 12.6278
71 1 1 -1.66064 8.64409 13.2821
72 1 1 -2.30973 7.97166 13.9497
73 1 1 -2.94479 7.28597 14.6306
74 1 1 -3.56581 6.58754 15.3248
75 1 1 -4.17271 5.87681 16.0324
76 1 1 -4.76539 5.15417 16.7532
77 1 1 -5.3439 4.42014 17.4874
78 1 1 -5.90823 3.67515 18.235
79 1 1 -6.45843 2.91967 18.9958
80 1 1 -6.99454 2.15412 19.77
81 1 1 -7.51662 1.37894 20.5575
82 1 1 -8.02481 0.59458 21.3584
83 1 1 -8.51922 -0.19854 22.1725
84 1 1 -9 -1 23
85 1 1 21 21 0
86 1 1 21.711 20.0059 0.4997
87 1 1 22.4013 18.9974 0.97442
88 1 1 23.07 17.9744 1.42415
89 1 1 23.7158 16.9367 1.8489
90 1 1 24.3375 15.8845 2.24866
91 1 1 24.934 14.8177 2.62344
92 1 1 25.5039 13.7366 2.97323
93 1 1 26.0461 12.6412 3.29804
94 1 1 26.559 11.532 3.59786
95 1 1 27.0417 10.4091 3.87269
96 1 1 27.4927 9.27322 4.12255
97 1 1 27.9107 8.12477 4.34741
98 1 1 28.2946 6.96449 4.54729
99 1 1 28.6432 5.79309 4.72219
100 1 1 28.9555 4.61151 4.8721
101 1 1 29.2303 3.42065 4.99703
102 1 1 29.4669 2.22162 5.09697
103 1 1 29.6646 1.01557 5.17192
104 1 1 29.8227 -0.19631 5.22189
105 1 1 29.9407 -1.41274 5.24688
106 1 1 30.0186 -2.63241 5.24688
107 1 1 30.0561 -3.85398 5.22189
108 1 1 30.0534 -5.07612 5.17192
109 1 1 30.0107 -6.29752 5.09697
110 1 1 29.9284 -7.5169 4.99703
111 1 1 29.8073 -8.73303 4.8721
112 1 1 29.6477 -9.94473 4.72219
113 1 1 29.4509 -11.1509 4.54729
114 1 1 29.2176 -12.3506 4.34741
115 1 1 28.949 -13.5429 4.12255
116 1 1 28.6461 -14.7269 3.87269
117 1 1 28.3102 -15.902 3.59786
118 1 1 27.9424 -17.0675 3.29804
119 1 1 27.5439 -18.2229 2.97323
120 1 1 27.116 -19.3677 2.62344
121 1 1 26.66 -20.5017 2.24866
122 1 1 26.1771 -21.6244 1.8489
123 1 1 25.6685 -22.7357 1.42415
124 1 1 25.1353 -23.8355 0.97442
125 1 1 24.5788 -24.9235 0.4997
126 1 1 24 -26 0
127 1 1 -21 21 0
128 1 1 -21.711 20.0059 -0.4997
129 1 1 -22.4013 18.9974 -0.97442
130 1 1 -23.07 17.9744 -1.42415
131 1 1 -23.7158 16.9367 -1.8489
132 1 1 -24.3375 15.8845 -2.24866
133 1 1 -24.934 14.8177 -2.62344
134 1 1 -25.5039 13.7366 -2.97323
135 1 1 -26.0461 12.6412 -3.29804
136 1 1 -26.559 11.532 -3.59786
137 1 1 -27.0417 10.4091 -3.87269
138 1 1 -27.4927 9.27322 -4.12255
139 1 1 -27.9107 8.12477 -4.34741
140 1 1 -28.2946 6.96449 -4.54729
141 1 1 -28.6432 5.79309 -4.72219
142 1 1 -28.9555 4.61151 -4.8721
143 1 1 -29.2303 3.42065 -4.99703
144 1 1 -29.4669 2.22162 -5.09697
145 1 1 -29.6646 1.01557 -5.17192
146 1 1 -29.8227 -0.19631 -5.22189
147 1 1 -29.9407 -1.41274 -5.24688
148 1 1 -30.0186 -2.63241 -5.24688
149 1 1 -30.0561 -3.85398 -5.22189
150 1 1 -30.0534 -5.07612 -5.17192
151 1 1 -30.0107 -6.29752 -5.09697
152 1 1 -29.9284 -7.5169 -4.99703
153 1 1 -29.8073 -8.73303 -4.8721
154 1 1 -29.6477 -9.94473 -4.72219
155 1 1 -29.4509 -11.1509 -4.54729
156 1 1 -29.2176 -12.3506 -4.34741
157 1 1 -28.949 -13.5429 -4.12255
158 1 1 -28.6461 -14.7269 -3.87269
159 1 1 -28.3102 -15.902 -3.59786
160 1 1 -27.9424 -17.0675 -3.29804
161 1 1 -27.5439 -18.2229 -2.97323
162 1 1 -27.116 -19.3677 -2.62344
163 1 1 -26.66 -20.5017 -2.24866
164 1 1 -26.1771 -21.6244 -1.8489
165 1 1 -25.6685 -22.7357 -1.42415
166 1 1 -25.1353 -23.8355 -0.97442
167 1 1 -24.5788 -24.9235 -0.4997
168 1 1 -24 -26 0
169 1 1 -21 21 0
170 1 1 -20.2148 20.5418 -0.49435
171 1 1 -19.432 20.0796 -0.99203
172 1 1 -18.6516 19.6133 -1.49304
173 1 1 -17.8736 19.1429 -1.99738
174 1 1 -17.098 18.6685 -2.50506
175 1 1 -16.325 18.1901 -3.01606
176 1 1 -15.5544 17.7077 -3.5304
177 1 1 -14.7864 17.2213 -4.04807
178 1 1 -14.0209 16.7308 -4.56907
179 1 1 -13.258 16.2364 -5.0934
180 1 1 -12.4977 15.7379 -5.62106
181 1 1 -11.74 15.2355 -6.15205
182 1 1 -10.985 14.7292 -6.68638
183 1 1 -10.2326 14.2189 -7.22403
184 1 1 -9.48293 13.7046 -7.76502
185 1 1 -8.73595 13.1865 -8.30934
186 1 1 -7.9917 12.6644 -8.85699
187 1 1 -7.2502 12.1384 -9.40797
188 1 1 -6.51148 11.6085 -9.96228
189 1 1 -5.77555 11.0747 -10.5199
190 1 1 -5.04244 10.5371 -11.0809
191 1 1 -4.31216 9.99564 -11.6452
192 1 1 -3.58474 9.45036 -12.2128
193 1 1 -2.86018 8.90125 -12.7838
194 1 1 -2.13853 8.34834 -13.3581
195 1 1 -1.41979 7.79166 -13.9358
196 1 1 -0.70398 7.23122 -14.5167
197 1 1 0.00888 6.66701 -15.101
198 1 1 0.71877 6.09909 -15.6886
199 1 1 1.42568 5.52745 -16.2796
200 1 1 2.12959 4.95212 -16.8739
201 1 1 2.83047 4.37311 -17.4715
202 1 1 3.52832 3.79045 -18.0725
203 1 1 4.22312 3.20416 -18.6767
204 1 1 4.91485 2.61424 -19.2843
205 1 1 5.6035 2.02074 -19.8953
206 1 1 6.28905 1.42366 -20.5096
207 1 1 6.97149 0.82302 -21.1272
208 1 1 7.6508 0.21885 -21.7481
209 1 1 8.32697 -0.38883 -22.3724
210 1 1 9 -1 -23
211 1 1 -24 -26 0
212 1 1 -23.019 -26.8809 -0.7329
213 1 1 -22.0193 -27.7406 -1.42915
214 1 1 -21.0006 -28.5775 -2.08876
215 1 1 -19.9622 -29.3899 -2.71172
216 1 1 -18.9034 -30.1757 -3.29804
217 1 1 -17.824 -30.9328 -3.84771
218 1 1 -16.7235 -31.6589 -4.36074
219 1 1 -15.6016 -32.3514 -4.83712
220 1 1 -14.4582 -33.0078 -5.27686
221 1 1 -13.2933 -33.6252 -5.67995
222 1 1 -12.1071 -34.2007 -6.0464
223 1 1 -10.9 -34.7309 -6.3762
224 1 1 -9.67293 -35.2131 -6.66936
225 1 1 -8.4269 -35.6439 -6.92588
226 1 1 -7.16331 -36.02 -7.14575
227 1 1 -5.88405 -36.3387 -7.32897
228 1 1 -4.5913 -36.5974 -7.47555
229 1 1 -3.28762 -36.7936 -7.58548
230 1 1 -1.97586 -36.9254 -7.65877
231 1 1 -0.65917 -36.9916 -7.69542
232 1 1 0.65917 -36.9916 -7.69542
233 1 1 1.97586 -36.9254 -7.65877
234 1 1 3.28762 -36.7936 -7.58548
235 1 1 4.5913 -36.5974 -7.47555
236 1 1 5.88405 -36.3387 -7.32897
237 1 1 7.16331 -36.02 -7.14575
238 1 1 8.4269 -35.6439 -6.92588
239 1 1 9.67293 -35.2131 -6.66936
240 1 1 10.9 -34.7309 -6.3762
241 1 1 12.1071 -34.2007 -6.0464
242 1 1 13.2933 -33.6252 -5.67995
243 1 1 14.4582 -33.0078 -5.27686
244 1 1 15.6016 -32.3514 -4.83712
245 1 1 16.7235 -31.6589 -4.36074
246 1 1 17.824 -30.9328 -3.84771
247 1 1 18.9034 -30.1757 -3.29804
248 1 1 19.9622 -29.3899 -2.71172
249 1 1 21.0006 -28.5775 -2.08876
250 1 1 22.0193 -27.7406 -1.42915
251 1 1 23.019 -26.8809 -0.7329
252 1 1 24 -26 0
253 1 1 -9 -1 23
254 1 1 -9.66622 -1.35302 22.1392
255 1 1 -10.3251 -1.71953 21.2934
256 1 1 -10.9761 -2.09986 20.4626
257 1 1 -11.6186 -2.49438 19.6468
258 1 1 -12.252 -2.90338 18.8459
259 1 1 -12.8756 -3.32713 18.0601
260 1 1 -13.4888 -3.76587 17.2892
261 1 1 -14.0907 -4.21986 16.5334
262 1 1 -14.6808 -4.68924 15.7925
263 1 1 -15.2581 -5.17413 15.0666
264 1 1 -15.822 -5.67462 14.3557
265 1 1 -16.3716 -6.19078 13.6599
266 1 1 -16.9061 -6.72249 12.9789
267 1 1 -17.4247 -7.26974 12.313
268 1 1 -17.9268 -7.83225 11.6621
269 1 1 -18.4114 -8.40984 11.0262
270 1 1 -18.8778 -9.00216 10.4052
271 1 1 -19.3255 -9.60879 9.79929
272 1 1 -19.7538 -10.2293 9.20833
273 1 1 -20.1622 -10.8631 8.63236
274 1 1 -20.55 -11.5096 8.07139
275 1 1 -20.9171 -12.1681 7.5254
276 1 1 -21.2631 -12.838 6.99441
277 1 1 -21.5877 -13.5185 6.47841
278 1 1 -21.8908 -14.2089 5.97739
279 1 1 -22.1724 -14.9083 5.49137
280 1 1 -22.4325 -15.6159 5.02035
281 1 1 -22.6713 -16.3311 4.56431
282 1 1 -22.8889 -17.0529 4.12326
283 1 1 -23.0857 -17.7808 3.6972
284 1 1 -23.2619 -18.5138 3.28614
285 1 1 -23.4181 -19.2514 2.89007
286 1 1 -23.5546 -19.9929 2.50898
287 1 1 -23.6719 -20.7377 2.14289
288 1 1 -23.7705 -21.4852 1.79179
289 1 1 -23.8509 -22.2349 1.45568
290 1 1 -23.9137 -22.9862 1.13456
291 1 1 -23.9595 -23.7388 0.82844
292 1 1 -23.9887 -24.4922 0.5373
293 1 1 -24.002 -25.246 0.26115
294 1 1 -24 -26 0
295 1 1 -9 -1 23
296 1 1 -8.73014 -1.73824 21.0452
297 1 1 -8.45282 -2.4737 19.1321
298 1 1 -8.16728 -3.20602 17.2606
299 1 1 -7.87285 -3.9348 15.4307
300 1 1 -7.5687 -4.65958 13.6425
301 1 1 -7.25389 -5.3798 11.8959
302 1 1 -6.92716 -6.09468 10.191
303 1 1 -6.58737 -6.80344 8.52766
304 1 1 -6.23281 -7.50493 6.90601
305 1 1 -5.86159 -8.19774 5.326
306 1 1 -5.47142 -8.88005 3.78763
307 1 1 -5.05952 -9.54945 2.2909
308 1 1 -4.62237 -10.2026 0.83581
309 1 1 -4.15558 -10.8349 -0.57763
310 1 1 -3.65377 -11.4397 -1.94943
311 1 1 -3.11016 -12.0072 -3.2796
312 1 1 -2.51693 -12.5223 -4.56811
313 1 1 -1.86639 -12.9623 -5.81499
314 1 1 -1.15499 -13.294 -7.02023
315 1 1 -0.39206 -13.4763 -8.18382
316 1 1 0.39206 -13.4763 -9.30577
317 1 1 1.15499 -13.294 -10.3861
318 1 1 1.86639 -12.9623 -11.4247
319 1 1 2.51693 -12.5223 -12.4218
320 1 1 3.11016 -12.0072 -13.3772
321 1 1 3.65377 -11.4397 -14.2909
322 1 1 4.15558 -10.8349 -15.163
323 1 1 4.62237 -10.2026 -15.9935
324 1 1 5.05952 -9.54945 -16.7823
325 1 1 5.47142 -8.88005 -17.5295
326 1 1 5.86159 -8.19774 -18.235
327 1 1 6.23281 -7.50493 -18.8989
328 1 1 6.58737 -6.80344 -19.5211
329 1 1 6.92716 -6.09468 -20.1017
330 1 1 7.25389 -5.3798 -20.6407
331 1 1 7.5687 -4.65958 -21.138
332 1 1 7.87285 -3.9348 -21.5937
333 1 1 8.16728 -3.20602 -22.0077
334 1 1 8.45282 -2.4737 -22.3801
335 1 1 8.73014 -1.73824 -22.7109
336 1 1 9 -1 -23
337 1 1 9 -1 -23
338 1 1 9.66622 -1.35302 -22.1392
339 1 1 10.3251 -1.71953 -21.2934
340 1 1 10.9761 -2.09986 -20.4626
341 1 1 11.6186 -2.49438 -19.6468
342 1 1 12.252 -2.90338 -18.8459
343 1 1 12.8756 -3.32713 -18.0601
344 1 1 13.4888 -3.76587 -17.2892
345 1 1 14.0907 -4.21986 -16.5334
346 1 1 14.6808 -4.68924 -15.7925
347 1 1 15.2581 -5.17413 -15.0666
348 1 1 15.822 -5.67462 -14.3557
349 1 1 16.3716 -6.19078 -13.6599
350 1 1 16.9061 -6.72249 -12.9789
351 1 1 17.4247 -7.26974 -12.313
352 1 1 17.9268 -7.83225 -11.6621
353 1 1 18.4114 -8.40984 -11.0262
354 1 1 18.8778 -9.00216 -10.4052
355 1 1 19.3255 -9.60879 -9.79929
356 1 1 19.7538 -10.2293 -9.20833
357 1 1 20.1622 -10.8631 -8.63236
358 1 1 20.55 -11.5096 -8.07139
359 1 1 20.9171 -12.1681 -7.5254
360 1 1 21.2631 -12.838 -6.99441
361 1 1 21.5877 -13.5185 -6.47841
362 1 1 21.8908 -14.2089 -5.97739
363 1 1 22.1724 -14.9083 -5.49137
364 1 1 22.4325 -15.6159 -5.02035
365 1 1 22.6713 -16.3311 -4.56431
366 1 1 22.8889 -17.0529 -4.12326
367 1 1 23.0857 -17.7808 -3.6972
368 1 1 23.2619 -18.5138 -3.28614
369 1 1 23.4181 -19.2514 -2.89007
370 1 1 23.5546 -19.9929 -2.50898
371 1 1 23.6719 -20.7377 -2.14289
372 1 1 23.7705 -21.4852 -1.79179
373 1 1 23.8509 -22.2349 -1.45568
374 1 1 23.9137 -22.9862 -1.13456
375 1 1 23.9595 -23.7388 -0.82844
376 1 1 23.9887 -24.4922 -0.5373
377 1 1 24.002 -25.246 -0.26115
378 1 1 24 -26 0
ITEM: TIMESTEP
4363
ITEM: NUMBER OF ATOMS
378
ITEM: BOX BOUNDS pp pp pp
-2.0000000000000000e+02 2.0000000000000000e+02
-2.0000000000000000e+02 2.0000000000000000e+02
-2.0000000000000000e+02 2.0000000000000000e+02
ITEM: ATOMS id type mol x y z
1 1 1 4.21663 4.90242 -4.63427
2 1 1 4.98285 5.685 -4.06206
3 1 1 5.81049 6.56456 -3.49043
4 1 1 6.58937 7.52727 -3.05939
5 1 1 7.28307 8.60903 -2.76588
6 1 1 7.81923 9.79961 -2.59261
7 1 1 8.13738 11.0738 -2.47665
8 1 1 8.17466 12.3851 -2.32706
9 1 1 7.87286 13.6439 -2.04986
10 1 1 7.20934 14.6951 -1.5833
11 1 1 6.24405 15.3439 -0.935705
12 1 1 5.13489 15.436 -0.202259
13 1 1 4.09055 14.9419 0.462259
14 1 1 3.28696 13.9757 0.90119
15 1 1 2.8064 12.7411 1.00398
16 1 1 2.627 11.4577 0.719741
17 1 1 2.64805 10.315 0.0483701
18 1 1 2.73537 9.45695 -0.957966
19 1 1 2.75045 8.9848 -2.19766
20 1 1 2.60261 8.96386 -3.51784
21 1 1 2.28445 9.43438 -4.7215
22 1 1 1.83539 10.3338 -5.59544
23 1 1 1.32124 11.505 -5.97098
24 1 1 0.804045 12.7165 -5.75567
25 1 1 0.334767 13.6889 -4.96728
26 1 1 -0.0457133 14.1519 -3.76945
27 1 1 -0.314417 13.9359 -2.47314
28 1 1 -0.477203 13.0694 -1.46135
29 1 1 -0.567337 11.8 -1.03895
30 1 1 -0.627711 10.4897 -1.30021
31 1 1 -0.708763 9.4464 -2.12533
32 1 1 -0.887558 8.81935 -3.28179
33 1 1 -1.27621 8.59518 -4.52873
34 1 1 -1.9294 8.69687 -5.67602
35 1 1 -2.79247 9.07305 -6.60537
36 1 1 -3.77591 9.66314 -7.26162
37 1 1 -4.80455 10.4 -7.63708
38 1 1 -5.8275 11.223 -7.75361
39 1 1 -6.83284 12.0693 -7.64455
40 1 1 -7.82882 12.8669 -7.33806
41 1 1 -8.85235 13.5864 -6.86696
42 1 1 -9.79867 14.2244 -6.39379
43 1 1 10.1746 7.68989 0.991797
44 1 1 8.94606 7.8066 1.04277
45 1 1 7.61979 7.93457 1.14261
46 1 1 6.33115 8.02291 1.36627
47 1 1 5.0691 8.00465 1.74833
48 1 1 3.89082 7.78884 2.3012
49 1 1 2.87362 7.30342 2.99179
50 1 1 2.11587 6.50724 3.73056
51 1 1 1.7008 5.41453 4.35936
52 1 1 1.6776 4.12694 4.69196
53 1 1 2.0074 2.84214 4.58219
54 1 1 2.52155 1.77098 3.98463
55 1 1 2.98866 1.04683 2.97144
56 1 1 3.33778 0.799913 1.71167
57 1 1 3.55622 1.0885 0.432617
58 1 1 3.54297 1.81153 -0.682265
59 1 1 3.28262 2.86566 -1.44972
60 1 1 2.81741 4.07241 -1.75064
61 1 1 2.19783 5.23531 -1.59098
62 1 1 1.43908 6.15736 -1.0094
63 1 1 0.598692 6.65902 -0.107422
64 1 1 -0.224655 6.58194 0.938798
65 1 1 -0.880887 5.91536 1.88883
66 1 1 -1.26774 4.8267 2.54604
67 1 1 -1.36548 3.54763 2.87
68 1 1 -1.18543 2.2478 2.99513
69 1 1 -0.748391 1.01483 3.15591
70 1 1 -0.131488 -0.0797514 3.56829
71 1 1 0.539867 -0.917587 4.34684
72 1 1 0.979114 -1.4513 5.4861
73 1 1 0.917749 -1.60662 6.81542
74 1 1 0.272099 -1.35591 7.96669
75 1 1 -0.80716 -0.828862 8.5686
76 1 1 -2.01317 -0.254253 8.45379
77 1 1 -3.04115 0.155935 7.70427
78 1 1 -3.70244 0.283989 6.55539
79 1 1 -3.95649 0.114972 5.26499
80 1 1 -3.88652 -0.301023 4.01347
81 1 1 -3.59807 -0.896729 2.87219
82 1 1 -3.13398 -1.59626 1.86464
83 1 1 -2.53295 -2.38099 0.965396
84 1 1 -1.93956 -3.12839 0.182776
85 1 1 6.17584 1.98314 2.57457
86 1 1 6.65837 2.51307 1.57039
87 1 1 7.27284 3.10699 0.542035
88 1 1 8.06905 3.72553 -0.29808
89 1 1 9.0282 4.3604 -0.941679
90 1 1 10.1029 4.98097 -1.38136
91 1 1 11.2565 5.59033 -1.5785
92 1 1 12.4177 6.20261 -1.40305
93 1 1 13.439 6.76799 -0.766332
94 1 1 14.126 7.16748 0.305997
95 1 1 14.3015 7.25614 1.63067
96 1 1 13.9104 6.93261 2.87319
97 1 1 13.103 6.20675 3.66436
98 1 1 12.2026 5.21571 3.77096
99 1 1 11.5704 4.17991 3.19765
100 1 1 11.453 3.32744 2.17133
101 1 1 11.896 2.79575 1.03094
102 1 1 12.7731 2.55217 0.0662759
103 1 1 13.9093 2.39133 -0.589724
104 1 1 15.1495 2.0573 -0.911361
105 1 1 16.2827 1.36039 -0.918473
106 1 1 17.0246 0.278853 -0.662331
107 1 1 17.1364 -0.985709 -0.237784
108 1 1 16.5825 -2.11682 0.210838
109 1 1 15.5348 -2.87035 0.54828
110 1 1 14.2366 -3.13093 0.687303
111 1 1 12.9289 -2.91894 0.590065
112 1 1 11.7869 -2.33057 0.262131
113 1 1 10.9192 -1.47872 -0.262843
114 1 1 10.3953 -0.469083 -0.940698
115 1 1 10.2725 0.595361 -1.71999
116 1 1 10.5927 1.59899 -2.52512
117 1 1 11.3401 2.4143 -3.25818
118 1 1 12.4288 2.90247 -3.84257
119 1 1 13.7001 2.91677 -4.2365
120 1 1 14.9166 2.40657 -4.42006
121 1 1 15.8461 1.45468 -4.40331
122 1 1 16.3643 0.247886 -4.22275
123 1 1 16.5178 -1.02796 -3.91943
124 1 1 16.4822 -2.28429 -3.55175
125 1 1 16.4331 -3.56386 -3.1724
126 1 1 16.3988 -4.74801 -2.82452
127 1 1 -7.8182 9.33187 -9.88864
128 1 1 -8.74008 8.54026 -9.66746
129 1 1 -9.7291 7.68285 -9.39804
130 1 1 -10.6424 6.80689 -9.05722
131 1 1 -11.4366 5.82975 -8.66656
132 1 1 -12.0283 4.72315 -8.26213
133 1 1 -12.3515 3.5025 -7.87713
134 1 1 -12.3565 2.22854 -7.5289
135 1 1 -12.0256 0.992103 -7.20203
136 1 1 -11.377 -0.10033 -6.83699
137 1 1 -10.4712 -0.928453 -6.33901
138 1 1 -9.43543 -1.35417 -5.62315
139 1 1 -8.4948 -1.26308 -4.68158
140 1 1 -7.92873 -0.66541 -3.62929
141 1 1 -7.93062 0.247516 -2.653
142 1 1 -8.5079 1.22139 -1.9474
143 1 1 -9.48948 2.0769 -1.66481
144 1 1 -10.6801 2.65317 -1.80227
145 1 1 -11.9215 2.79356 -2.2629
146 1 1 -13.0268 2.41245 -2.90473
147 1 1 -13.7863 1.52202 -3.55156
148 1 1 -14.0046 0.278321 -4.00298
149 1 1 -13.6 -1.00073 -4.0801
150 1 1 -12.7039 -1.93009 -3.70656
151 1 1 -11.643 -2.25172 -2.95248
152 1 1 -10.7801 -1.97227 -1.9729
153 1 1 -10.353 -1.32319 -0.893798
154 1 1 -10.4448 -0.609564 0.2251
155 1 1 -11.068 -0.120526 1.29746
156 1 1 -12.0862 -0.0536624 2.15638
157 1 1 -13.2451 -0.449986 2.67639
158 1 1 -14.3054 -1.22453 2.86139
159 1 1 -15.1403 -2.24721 2.79664
160 1 1 -15.7374 -3.40369 2.58599
161 1 1 -16.1519 -4.62331 2.31387
162 1 1 -16.4413 -5.87669 2.03676
163 1 1 -16.6214 -7.15642 1.78897
164 1 1 -16.6962 -8.45017 1.56504
165 1 1 -16.7137 -9.74358 1.32112
166 1 1 -16.7344 -11.0204 1.02956
167 1 1 -16.7836 -12.3091 0.680966
168 1 1 -16.8411 -13.4963 0.34265
169 1 1 -10.7432 10.2481 -7.50111
170 1 1 -9.81967 10.1948 -6.68204
171 1 1 -8.85661 10.1886 -5.75545
172 1 1 -8.02037 10.2351 -4.74603
173 1 1 -7.35787 10.1414 -3.60649
174 1 1 -6.93608 9.7302 -2.41953
175 1 1 -6.78778 8.92754 -1.37068
176 1 1 -6.8832 7.79194 -0.683522
177 1 1 -7.08983 6.48594 -0.525473
178 1 1 -7.21564 5.22579 -0.940643
179 1 1 -7.114 4.23863 -1.82883
180 1 1 -6.71386 3.68742 -2.97778
181 1 1 -5.95206 3.71028 -4.08324
182 1 1 -4.95179 4.34129 -4.73346
183 1 1 -4.02812 5.31972 -4.62785
184 1 1 -3.45098 6.21265 -3.80564
185 1 1 -3.26853 6.69607 -2.57189
186 1 1 -3.38082 6.63698 -1.24348
187 1 1 -3.6663 6.01298 -0.0985695
188 1 1 -3.93177 4.93195 0.63954
189 1 1 -3.95641 3.60681 0.832573
190 1 1 -3.62448 2.37356 0.414531
191 1 1 -2.99364 1.62975 -0.511607
192 1 1 -2.25052 1.60358 -1.62697
193 1 1 -1.58407 2.19568 -2.61412
194 1 1 -1.06413 3.11762 -3.40081
195 1 1 -0.641431 4.11068 -4.15213
196 1 1 -0.227864 4.96673 -5.0684
197 1 1 0.265403 5.4516 -6.20249
198 1 1 0.867676 5.36754 -7.39048
199 1 1 1.53148 4.6844 -8.32915
200 1 1 2.17491 3.58926 -8.74614
201 1 1 2.75146 2.40482 -8.53147
202 1 1 3.28692 1.45691 -7.76415
203 1 1 3.86043 0.964003 -6.67103
204 1 1 4.57308 0.974717 -5.55076
205 1 1 5.47495 1.39151 -4.67059
206 1 1 6.47535 2.1057 -4.17477
207 1 1 7.44666 2.99886 -4.0796
208 1 1 8.31359 3.9636 -4.27647
209 1 1 9.11155 4.9753 -4.62903
210 1 1 9.83066 5.91632 -4.97828
211 1 1 -7.22233 -21.3668 2.8495
212 1 1 -7.1805 -21.4077 1.61497
213 1 1 -7.14784 -21.4715 0.28083
214 1 1 -7.16179 -21.6182 -1.02149
215 1 1 -7.24084 -21.9175 -2.30323
216 1 1 -7.39824 -22.4576 -3.49717
217 1 1 -7.62908 -23.2988 -4.49315
218 1 1 -7.90048 -24.432 -5.13064
219 1 1 -8.14272 -25.7364 -5.25138
220 1 1 -8.26125 -26.9812 -4.78342
221 1 1 -8.17055 -27.894 -3.81131
222 1 1 -7.8309 -28.2685 -2.57376
223 1 1 -7.2652 -28.0426 -1.38452
224 1 1 -6.54776 -27.3082 -0.530808
225 1 1 -5.77708 -26.2686 -0.205212
226 1 1 -5.05332 -25.1819 -0.479638
227 1 1 -4.46737 -24.3085 -1.30009
228 1 1 -4.0927 -23.8528 -2.49619
229 1 1 -3.96346 -23.9209 -3.82118
230 1 1 -4.0595 -24.5062 -5.01402
231 1 1 -4.31656 -25.5049 -5.85631
232 1 1 -4.64367 -26.7476 -6.20397
233 1 1 -4.93789 -28.0297 -5.9989
234 1 1 -5.09744 -29.1371 -5.27619
235 1 1 -5.03848 -29.8772 -4.16953
236 1 1 -4.71841 -30.1204 -2.89842
237 1 1 -4.16035 -29.8314 -1.72245
238 1 1 -3.44488 -29.0807 -0.884076
239 1 1 -2.66555 -28.0467 -0.563492
240 1 1 -1.9178 -26.9771 -0.843202
241 1 1 -1.29754 -26.1439 -1.68341
242 1 1 -0.888703 -25.7841 -2.90452
243 1 1 -0.735795 -26.0214 -4.21149
244 1 1 -0.821237 -26.8123 -5.28439
245 1 1 -1.07174 -27.9699 -5.89539
246 1 1 -1.39368 -29.2565 -5.97424
247 1 1 -1.71341 -30.4817 -5.58588
248 1 1 -1.99587 -31.5463 -4.8576
249 1 1 -2.23511 -32.4346 -3.91231
250 1 1 -2.43266 -33.1855 -2.85618
251 1 1 -2.5966 -33.8718 -1.72165
252 1 1 -2.73708 -34.4908 -0.661133
253 1 1 1.06497 -3.97662 2.40446
254 1 1 0.0912128 -3.96073 3.1614
255 1 1 -0.950982 -3.90155 3.99532
256 1 1 -1.95979 -3.79985 4.82276
257 1 1 -3.00515 -3.74107 5.62011
258 1 1 -4.11355 -3.78154 6.32741
259 1 1 -5.29084 -3.92733 6.89804
260 1 1 -6.5245 -4.13701 7.30628
261 1 1 -7.80195 -4.33427 7.55506
262 1 1 -9.11173 -4.4238 7.66222
263 1 1 -10.4254 -4.30437 7.6443
264 1 1 -11.673 -3.88895 7.51003
265 1 1 -12.7343 -3.1342 7.2671
266 1 1 -13.4562 -2.07044 6.9362
267 1 1 -13.6997 -0.819348 6.55865
268 1 1 -13.4023 0.421563 6.18362
269 1 1 -12.6139 1.43905 5.85108
270 1 1 -11.4793 2.07318 5.57884
271 1 1 -10.1847 2.24276 5.34201
272 1 1 -8.92131 1.93239 5.08023
273 1 1 -7.88169 1.18375 4.72918
274 1 1 -7.24811 0.114739 4.25884
275 1 1 -7.13007 -1.08268 3.69343
276 1 1 -7.55578 -2.18842 3.0915
277 1 1 -8.43504 -3.00898 2.53276
278 1 1 -9.56202 -3.4755 2.0274
279 1 1 -10.753 -3.66697 1.50312
280 1 1 -11.9125 -3.7519 0.890049
281 1 1 -12.9821 -4.01286 0.164029
282 1 1 -13.8652 -4.66522 -0.579104
283 1 1 -14.4275 -5.70793 -1.17952
284 1 1 -14.6047 -6.97917 -1.51504
285 1 1 -14.4356 -8.29168 -1.54163
286 1 1 -14.033 -9.51913 -1.26903
287 1 1 -13.5677 -10.6269 -0.726845
288 1 1 -13.2298 -11.6439 0.0416526
289 1 1 -13.154 -12.5841 0.96483
290 1 1 -13.3693 -13.4307 1.95251
291 1 1 -13.8077 -14.18 2.94437
292 1 1 -14.3766 -14.8581 3.9111
293 1 1 -15.0477 -15.5126 4.8632
294 1 1 -15.6973 -16.1113 5.7279
295 1 1 -1.30586 -8.90029 0.106124
296 1 1 -2.42727 -8.77666 -0.397749
297 1 1 -3.66163 -8.6392 -0.891461
298 1 1 -4.91317 -8.41605 -1.21831
299 1 1 -6.15375 -7.9777 -1.35126
300 1 1 -7.23237 -7.20969 -1.29021
301 1 1 -7.95345 -6.10782 -1.10621
302 1 1 -8.14861 -4.80496 -0.911868
303 1 1 -7.76891 -3.53202 -0.819263
304 1 1 -6.91514 -2.51599 -0.930165
305 1 1 -5.78441 -1.9427 -1.3432
306 1 1 -4.62195 -1.91598 -1.99127
307 1 1 -3.58325 -2.42588 -2.64312
308 1 1 -2.70944 -3.32148 -3.0757
309 1 1 -1.93968 -4.38958 -3.18003
310 1 1 -1.1687 -5.43682 -2.95344
311 1 1 -0.306174 -6.2945 -2.43499
312 1 1 0.687194 -6.79654 -1.71445
313 1 1 1.7585 -6.79899 -0.925207
314 1 1 2.75302 -6.21834 -0.249139
315 1 1 3.43234 -5.13341 0.140585
316 1 1 3.60702 -3.80733 0.146532
317 1 1 3.27187 -2.57109 -0.22312
318 1 1 2.60411 -1.63924 -0.889182
319 1 1 1.81186 -1.03265 -1.7578
320 1 1 1.01877 -0.798109 -2.79216
321 1 1 0.326362 -0.991662 -3.90664
322 1 1 -0.170508 -1.61932 -4.96628
323 1 1 -0.390565 -2.62621 -5.80767
324 1 1 -0.26598 -3.86945 -6.27175
325 1 1 0.227211 -5.10937 -6.26191
326 1 1 1.03575 -6.06622 -5.80101
327 1 1 2.04166 -6.5162 -5.04912
328 1 1 3.10609 -6.36967 -4.26063
329 1 1 4.11252 -5.69595 -3.70732
330 1 1 4.97907 -4.69386 -3.58781
331 1 1 5.65788 -3.6136 -3.95554
332 1 1 6.14128 -2.65186 -4.72553
333 1 1 6.45101 -1.87988 -5.75041
334 1 1 6.62293 -1.24038 -6.88128
335 1 1 6.70071 -0.628666 -8.06617
336 1 1 6.74901 -0.0670156 -9.16485
337 1 1 10.0963 1.6764 -7.17102
338 1 1 10.1083 0.444262 -7.08835
339 1 1 10.0933 -0.887057 -6.97572
340 1 1 9.94404 -2.1766 -6.78995
341 1 1 9.56195 -3.41631 -6.54536
342 1 1 8.87044 -4.51962 -6.31618
343 1 1 7.85075 -5.36527 -6.2326
344 1 1 6.60815 -5.80503 -6.42301
345 1 1 5.38872 -5.74761 -6.96408
346 1 1 4.52029 -5.26552 -7.85982
347 1 1 4.26345 -4.5809 -8.98019
348 1 1 4.65444 -3.95191 -10.09
349 1 1 5.52558 -3.54608 -11.007
350 1 1 6.65853 -3.39081 -11.6715
351 1 1 7.90332 -3.4129 -12.1064
352 1 1 9.19625 -3.49727 -12.3445
353 1 1 10.5136 -3.52345 -12.3861
354 1 1 11.8137 -3.3872 -12.1972
355 1 1 13.0011 -3.0262 -11.7375
356 1 1 13.9379 -2.44696 -11
357 1 1 14.4976 -1.73142 -10.0342
358 1 1 14.6255 -1.01168 -8.92926
359 1 1 14.3587 -0.433285 -7.76892
360 1 1 13.8055 -0.137494 -6.60374
361 1 1 13.1233 -0.256732 -5.47128
362 1 1 12.4622 -0.90391 -4.50819
363 1 1 12.0194 -2.05982 -3.98564
364 1 1 12.0157 -3.40249 -4.07637
365 1 1 12.5074 -4.49011 -4.69122
366 1 1 13.3848 -5.04969 -5.52953
367 1 1 14.4783 -5.07205 -6.2862
368 1 1 15.6602 -4.70789 -6.76409
369 1 1 16.8551 -4.14353 -6.85865
370 1 1 17.9889 -3.54489 -6.52073
371 1 1 18.9532 -3.04833 -5.75523
372 1 1 19.6249 -2.75559 -4.64799
373 1 1 19.9443 -2.72091 -3.36223
374 1 1 19.9637 -2.93944 -2.0597
375 1 1 19.7854 -3.35496 -0.820587
376 1 1 19.4879 -3.87895 0.343874
377 1 1 19.102 -4.4637 1.48171
378 1 1 18.7279 -5.01535 2.52262
ITEM: TIMESTEP
5000
ITEM: NUMBER OF ATOMS
378
ITEM: BOX BOUNDS pp pp pp
-2.0000000000000000e+02 2.0000000000000000e+02
-2.0000000000000000e+02 2.0000000000000000e+02
-2.0000000000000000e+02 2.0000000000000000e+02
ITEM: ATOMS id type mol x y z
1 1 1 4.1225 4.98477 -5.23247
2 1 1 4.81572 5.84081 -4.65767
3 1 1 5.58542 6.69978 -3.94997
4 1 1 6.30937 7.62372 -3.3684
5 1 1 6.99246 8.60912 -2.84179
6 1 1 7.56469 9.75651 -2.54396
7 1 1 8.01323 10.999 -2.36418
8 1 1 8.23499 12.3132 -2.18252
9 1 1 8.01392 13.5845 -1.88548
10 1 1 7.30786 14.6267 -1.39092
11 1 1 6.29896 15.1686 -0.689233
12 1 1 5.19503 15.1877 0.0451183
13 1 1 4.165 14.6602 0.706327
14 1 1 3.36555 13.6788 1.14355
15 1 1 2.93324 12.4196 1.18369
16 1 1 2.78182 11.1931 0.685204
17 1 1 2.71428 10.1665 -0.150754
18 1 1 2.76756 9.44948 -1.25727
19 1 1 2.78562 9.0073 -2.49019
20 1 1 2.72578 9.13315 -3.82038
21 1 1 2.44099 9.60521 -5.03272
22 1 1 1.92937 10.5773 -5.80794
23 1 1 1.43207 11.784 -6.03473
24 1 1 0.90178 12.9824 -5.78503
25 1 1 0.416951 14.008 -5.05874
26 1 1 0.0270066 14.4495 -3.86252
27 1 1 -0.231851 14.2317 -2.55929
28 1 1 -0.446544 13.3265 -1.57301
29 1 1 -0.479119 12.044 -1.16618
30 1 1 -0.486947 10.715 -1.37921
31 1 1 -0.587618 9.63419 -2.08698
32 1 1 -0.824666 8.82089 -3.09606
33 1 1 -1.32247 8.46185 -4.25962
34 1 1 -2.00689 8.62417 -5.41561
35 1 1 -2.96367 8.99808 -6.27505
36 1 1 -3.88007 9.48452 -7.06029
37 1 1 -4.83154 10.2495 -7.62225
38 1 1 -5.71684 11.1854 -7.82234
39 1 1 -6.50062 12.2161 -7.92411
40 1 1 -7.34648 13.1891 -7.77337
41 1 1 -8.35592 14.0498 -7.43533
42 1 1 -9.26981 14.8312 -7.242
43 1 1 9.93262 8.1702 0.402933
44 1 1 8.78631 8.29231 0.789697
45 1 1 7.48081 8.20281 1.16522
46 1 1 6.23074 8.17664 1.46458
47 1 1 4.98074 7.99317 1.89492
48 1 1 3.83542 7.64771 2.49429
49 1 1 2.85579 7.17341 3.22654
50 1 1 2.0329 6.52309 4.0306
51 1 1 1.72737 5.33538 4.57429
52 1 1 1.80391 4.0405 4.77748
53 1 1 2.11234 2.78231 4.45243
54 1 1 2.54279 1.77142 3.76473
55 1 1 2.9455 1.11077 2.67327
56 1 1 3.21077 0.958619 1.38994
57 1 1 3.61877 1.21997 0.124146
58 1 1 3.87136 1.838 -1.02255
59 1 1 3.78819 2.84573 -1.87017
60 1 1 3.31754 4.07488 -2.15389
61 1 1 2.58485 5.14717 -1.97343
62 1 1 1.65631 5.89365 -1.35556
63 1 1 0.796963 6.27696 -0.433323
64 1 1 0.0215896 6.30212 0.623167
65 1 1 -0.603998 5.76727 1.70045
66 1 1 -0.907216 4.72551 2.37125
67 1 1 -1.12898 3.53777 2.92513
68 1 1 -1.13777 2.2518 3.30297
69 1 1 -0.807269 0.963109 3.47755
70 1 1 -0.140091 -0.0264123 3.9595
71 1 1 0.550297 -0.840715 4.7804
72 1 1 1.06651 -1.32747 5.92454
73 1 1 0.956139 -1.59887 7.2453
74 1 1 0.236346 -1.53708 8.36125
75 1 1 -0.907246 -1.15453 8.9307
76 1 1 -2.15013 -0.648091 8.7919
77 1 1 -3.14102 -0.263076 8.01907
78 1 1 -3.82363 -0.0986849 6.87643
79 1 1 -4.06248 -0.141629 5.59465
80 1 1 -3.96488 -0.448287 4.28985
81 1 1 -3.68921 -0.884668 3.07749
82 1 1 -3.23942 -1.41708 1.98416
83 1 1 -2.60724 -2.15613 1.04064
84 1 1 -1.99368 -2.75526 0.212305
85 1 1 6.4366 1.93198 2.27687
86 1 1 6.89234 2.44561 1.30038
87 1 1 7.57213 3.06641 0.303313
88 1 1 8.29916 3.76525 -0.548446
89 1 1 9.26127 4.43133 -1.10963
90 1 1 10.3735 5.02648 -1.43883
91 1 1 11.5765 5.57989 -1.53557
92 1 1 12.7015 6.26126 -1.31186
93 1 1 13.6254 6.91016 -0.640964
94 1 1 14.217 7.49819 0.384712
95 1 1 14.274 7.67691 1.71405
96 1 1 13.7906 7.45836 2.95538
97 1 1 12.9066 6.85434 3.70778
98 1 1 11.9199 5.93025 3.82632
99 1 1 11.4556 4.75071 3.35536
100 1 1 11.4853 3.74874 2.47302
101 1 1 11.952 3.0602 1.42426
102 1 1 12.8439 2.57186 0.567043
103 1 1 13.9137 2.13959 -0.140859
104 1 1 15.0591 1.6896 -0.565164
105 1 1 16.1416 0.93596 -0.756429
106 1 1 16.8969 -0.155663 -0.637455
107 1 1 17.157 -1.42617 -0.326238
108 1 1 16.6466 -2.55061 0.122951
109 1 1 15.5922 -3.34077 0.422586
110 1 1 14.2565 -3.49931 0.500667
111 1 1 12.9757 -3.14241 0.439135
112 1 1 11.8616 -2.44716 0.198184
113 1 1 10.9682 -1.59106 -0.300874
114 1 1 10.4662 -0.463946 -0.881662
115 1 1 10.3303 0.612876 -1.62672
116 1 1 10.6227 1.58395 -2.46662
117 1 1 11.5101 2.38823 -3.08282
118 1 1 12.6539 2.91774 -3.54127
119 1 1 13.956 3.02528 -3.88287
120 1 1 15.1483 2.50832 -4.16146
121 1 1 16.1304 1.59464 -4.23228
122 1 1 16.7071 0.423396 -4.26714
123 1 1 16.9148 -0.864481 -4.07135
124 1 1 16.7069 -2.10298 -3.74061
125 1 1 16.4819 -3.40569 -3.56691
126 1 1 16.3255 -4.6063 -3.35594
127 1 1 -7.78766 9.26088 -9.84115
128 1 1 -8.75587 8.54322 -9.60398
129 1 1 -9.73074 7.66179 -9.3796
130 1 1 -10.5894 6.71882 -9.03374
131 1 1 -11.4664 5.72637 -8.89131
132 1 1 -12.1077 4.55949 -8.79851
133 1 1 -12.4394 3.29458 -8.5293
134 1 1 -12.3725 2.00679 -8.18369
135 1 1 -11.8912 0.86379 -7.72165
136 1 1 -11.1678 -0.131206 -7.22528