ITEM: TIMESTEP
0
ITEM: NUMBER OF ATOMS
131
ITEM: BOX BOUNDS pp pp pp
-2.0000000000000000e+02 2.0000000000000000e+02
-2.0000000000000000e+02 2.0000000000000000e+02
-2.0000000000000000e+02 2.0000000000000000e+02
ITEM: ATOMS id type mol x y z
1 1 1 0 0 0
2 1 1 0 18 0
3 1 1 -18 -9 0
4 1 1 18 -9 0
5 1 1 17 30 0
6 1 1 -17 30 0
7 1 1 -33 -3 0
8 1 1 -9 -25 0
9 1 1 15 -25 0
10 1 1 36 -1.5 0
11 1 1 0 1.28571 0
12 1 1 0 2.57143 0
13 1 1 0 3.85714 0
14 1 1 0 5.14286 0
15 1 1 0 6.42857 0
16 1 1 0 7.71429 0
17 1 1 0 9 0
18 1 1 0 10.2857 0
19 1 1 0 11.5714 0
20 1 1 0 12.8571 0
21 1 1 0 14.1429 0
22 1 1 0 15.4286 0
23 1 1 0 16.7143 0
24 1 1 -1.2 -0.6 0
25 1 1 -2.4 -1.2 0
26 1 1 -3.6 -1.8 0
27 1 1 -4.8 -2.4 0
28 1 1 -6 -3 0
29 1 1 -7.2 -3.6 0
30 1 1 -8.4 -4.2 0
31 1 1 -9.6 -4.8 0
32 1 1 -10.8 -5.4 0
33 1 1 -12 -6 0
34 1 1 -13.2 -6.6 0
35 1 1 -14.4 -7.2 0
36 1 1 -15.6 -7.8 0
37 1 1 -16.8 -8.4 0
38 1 1 1.2 -0.6 0
39 1 1 2.4 -1.2 0
40 1 1 3.6 -1.8 0
41 1 1 4.8 -2.4 0
42 1 1 6 -3 0
43 1 1 7.2 -3.6 0
44 1 1 8.4 -4.2 0
45 1 1 9.6 -4.8 0
46 1 1 10.8 -5.4 0
47 1 1 12 -6 0
48 1 1 13.2 -6.6 0
49 1 1 14.4 -7.2 0
50 1 1 15.6 -7.8 0
51 1 1 16.8 -8.4 0
52 1 1 1.0625 18.75 0
53 1 1 2.125 19.5 0
54 1 1 3.1875 20.25 0
55 1 1 4.25 21 0
56 1 1 5.3125 21.75 0
57 1 1 6.375 22.5 0
58 1 1 7.4375 23.25 0
59 1 1 8.5 24 0
60 1 1 9.5625 24.75 0
61 1 1 10.625 25.5 0
62 1 1 11.6875 26.25 0
63 1 1 12.75 27 0
64 1 1 13.8125 27.75 0
65 1 1 14.875 28.5 0
66 1 1 15.9375 29.25 0
67 1 1 -1.0625 18.75 0
68 1 1 -2.125 19.5 0
69 1 1 -3.1875 20.25 0
70 1 1 -4.25 21 0
71 1 1 -5.3125 21.75 0
72 1 1 -6.375 22.5 0
73 1 1 -7.4375 23.25 0
74 1 1 -8.5 24 0
75 1 1 -9.5625 24.75 0
76 1 1 -10.625 25.5 0
77 1 1 -11.6875 26.25 0
78 1 1 -12.75 27 0
79 1 1 -13.8125 27.75 0
80 1 1 -14.875 28.5 0
81 1 1 -15.9375 29.25 0
82 1 1 -19.25 -8.5 0
83 1 1 -20.5 -8 0
84 1 1 -21.75 -7.5 0
85 1 1 -23 -7 0
86 1 1 -24.25 -6.5 0
87 1 1 -25.5 -6 0
88 1 1 -26.75 -5.5 0
89 1 1 -28 -5 0
90 1 1 -29.25 -4.5 0
91 1 1 -30.5 -4 0
92 1 1 -31.75 -3.5 0
93 1 1 -17.3571 -10.1429 0
94 1 1 -16.7143 -11.2857 0
95 1 1 -16.0714 -12.4286 0
96 1 1 -15.4286 -13.5714 0
97 1 1 -14.7857 -14.7143 0
98 1 1 -14.1429 -15.8571 0
99 1 1 -13.5 -17 0
100 1 1 -12.8571 -18.1429 0
101 1 1 -12.2143 -19.2857 0
102 1 1 -11.5714 -20.4286 0
103 1 1 -10.9286 -21.5714 0
104 1 1 -10.2857 -22.7143 0
105 1 1 -9.64286 -23.8571 0
106 1 1 19.2 -8.5 0
107 1 1 20.4 -8 0
108 1 1 21.6 -7.5 0
109 1 1 22.8 -7 0
110 1 1 24 -6.5 0
111 1 1 25.2 -6 0
112 1 1 26.4 -5.5 0
113 1 1 27.6 -5 0
114 1 1 28.8 -4.5 0
115 1 1 30 -4 0
116 1 1 31.2 -3.5 0
117 1 1 32.4 -3 0
118 1 1 33.6 -2.5 0
119 1 1 34.8 -2 0
120 1 1 17.7692 -10.2308 0
121 1 1 17.5385 -11.4615 0
122 1 1 17.3077 -12.6923 0
123 1 1 17.0769 -13.9231 0
124 1 1 16.8462 -15.1538 0
125 1 1 16.6154 -16.3846 0
126 1 1 16.3846 -17.6154 0
127 1 1 16.1538 -18.8462 0
128 1 1 15.9231 -20.0769 0
129 1 1 15.6923 -21.3077 0
130 1 1 15.4615 -22.5385 0
131 1 1 15.2308 -23.7692 0
ITEM: TIMESTEP
3525
ITEM: NUMBER OF ATOMS
131
ITEM: BOX BOUNDS pp pp pp
-2.0000000000000000e+02 2.0000000000000000e+02
-2.0000000000000000e+02 2.0000000000000000e+02
-2.0000000000000000e+02 2.0000000000000000e+02
ITEM: ATOMS id type mol x y z
1 1 1 0.416319 2.01601 0
2 1 1 0.940101 15.756 0
3 1 1 -14.1771 -6.66987 0
4 1 1 14.2905 -6.43839 0
5 1 1 10.1939 21.6146 0
6 1 1 -10.6141 23.8084 0
7 1 1 -23.337 -4.45065 0
8 1 1 -14.3954 -17.9339 0
9 1 1 15.067 -14.6654 0
10 1 1 27.8346 -5.35742 0
11 1 1 0.384075 3.52144 0
12 1 1 1.62981 4.36722 0
13 1 1 0.930032 5.68673 0
14 1 1 0.767378 7.17355 0
15 1 1 -0.735576 7.24179 0
16 1 1 -1.07023 8.71074 0
17 1 1 -1.21816 10.2068 0
18 1 1 0.196252 10.7073 0
19 1 1 1.58215 11.2496 0
20 1 1 3.07148 11.3301 0
21 1 1 3.29458 12.818 0
22 1 1 3.54258 14.2984 0
23 1 1 2.19162 14.9498 0
24 1 1 -1.06078 1.73426 0
25 1 1 -2.49801 1.28715 0
26 1 1 -2.49777 -0.212812 0
27 1 1 -3.34373 -1.44803 0
28 1 1 -4.82369 -1.69602 0
29 1 1 -5.18514 -3.15027 0
30 1 1 -6.62664 -3.56563 0
31 1 1 -6.74114 -5.06168 0
32 1 1 -8.22538 -5.31393 0
33 1 1 -9.66908 -5.72936 0
34 1 1 -10.3493 -4.39283 0
35 1 1 -11.7334 -3.81903 0
36 1 1 -13.2329 -3.82995 0
37 1 1 -13.8729 -5.19623 0
38 1 1 1.18114 0.721937 0
39 1 1 2.67862 0.788211 0
40 1 1 2.96575 -0.678398 0
41 1 1 4.39554 -1.14111 0
42 1 1 5.88633 -0.952571 0
43 1 1 6.2148 -2.41392 0
44 1 1 7.56101 -3.07263 0
45 1 1 7.04929 -4.48677 0
46 1 1 8.08128 -5.58603 0
47 1 1 9.41617 -6.27968 0
48 1 1 10.5555 -5.30978 0
49 1 1 11.4088 -4.07976 0
50 1 1 12.9067 -4.09183 0
51 1 1 14.1399 -4.94509 0
52 1 1 0.229441 17.0657 0
53 1 1 -0.408995 18.4055 0
54 1 1 -0.487327 19.8998 0
55 1 1 0.828464 20.6358 0
56 1 1 2.32549 20.8101 0
57 1 1 3.06708 19.5136 0
58 1 1 3.73316 18.1831 0
59 1 1 5.09094 17.5593 0
60 1 1 6.42368 18.2616 0
61 1 1 7.12128 19.5903 0
62 1 1 6.38418 20.8918 0
63 1 1 5.80187 22.2688 0
64 1 1 6.87608 23.3234 0
65 1 1 8.28794 23.8587 0
66 1 1 9.47181 22.9301 0
67 1 1 -0.10975 14.6896 0
68 1 1 -1.3178 13.8121 0
69 1 1 -2.58392 14.5987 0
70 1 1 -3.95423 15.1993 0
71 1 1 -3.50126 16.6197 0
72 1 1 -3.97582 18.0401 0
73 1 1 -4.25561 19.5126 0
74 1 1 -5.74745 19.3453 0
75 1 1 -6.7624 20.4493 0
76 1 1 -7.61668 21.6743 0
77 1 1 -6.60809 22.7855 0
78 1 1 -6.04889 24.1779 0
79 1 1 -7.09045 25.2639 0
80 1 1 -8.46668 25.8735 0
81 1 1 -9.66651 24.9702 0
82 1 1 -15.6715 -6.55592 0
83 1 1 -16.6246 -7.69687 0
84 1 1 -17.5418 -8.85408 0
85 1 1 -18.5073 -9.99734 0
86 1 1 -19.8949 -10.5619 0
87 1 1 -21.0481 -9.58807 0
88 1 1 -21.7058 -8.23687 0
89 1 1 -20.7412 -7.08616 0
90 1 1 -19.8728 -5.86327 0
91 1 1 -20.8086 -4.68318 0
92 1 1 -22.0017 -3.76068 0
93 1 1 -12.8584 -7.38527 0
94 1 1 -12.7573 -8.87552 0
95 1 1 -12.8426 -10.3694 0
96 1 1 -14.3132 -10.622 0
97 1 1 -15.3924 -11.6426 0
98 1 1 -15.7804 -13.0837 0
99 1 1 -14.8436 -14.256 0
100 1 1 -13.3566 -14.4359 0
101 1 1 -11.9436 -13.9489 0
102 1 1 -11.1029 -15.193 0
103 1 1 -10.553 -16.5973 0
104 1 1 -11.5707 -17.703 0
105 1 1 -12.9456 -18.3067 0
106 1 1 15.5946 -7.16992 0
107 1 1 17.0803 -7.00244 0
108 1 1 18.0498 -5.86743 0
109 1 1 19.227 -6.79659 0
110 1 1 20.7238 -6.78464 0
111 1 1 20.948 -8.25613 0
112 1 1 21.7913 -9.4867 0
113 1 1 22.8654 -10.5284 0
114 1 1 24.2213 -9.87112 0
115 1 1 25.3712 -8.8986 0
116 1 1 24.8176 -7.50546 0
117 1 1 24.23 -6.12922 0
118 1 1 25.3387 -5.11874 0
119 1 1 26.6673 -4.4117 0
120 1 1 13.4205 -7.6573 0
121 1 1 12.2644 -8.61317 0
122 1 1 13.0179 -9.9133 0
123 1 1 13.6858 -11.26 0
124 1 1 15.144 -10.9318 0
125 1 1 16.6215 -10.768 0
126 1 1 18.0447 -10.3524 0
127 1 1 18.9204 -11.5556 0
128 1 1 19.8593 -12.7233 0
129 1 1 18.9074 -13.8836 0
130 1 1 17.9198 -15.0135 0
131 1 1 16.5413 -14.4259 0
ITEM: TIMESTEP
3823
ITEM: NUMBER OF ATOMS
131
ITEM: BOX BOUNDS pp pp pp
-2.0000000000000000e+02 2.0000000000000000e+02
-2.0000000000000000e+02 2.0000000000000000e+02
-2.0000000000000000e+02 2.0000000000000000e+02
ITEM: ATOMS id type mol x y z
1 1 1 0.0777515 2.2803 0
2 1 1 -0.327238 15.8028 0
3 1 1 -14.9981 -5.56584 0
4 1 1 14.5977 -5.26305 0
5 1 1 11.4864 26.208 0
6 1 1 -11.6272 27.2681 0
7 1 1 -23.0122 -2.21671 0
8 1 1 -11.5087 -23.1922 0
9 1 1 16.7093 -18.7385 0
10 1 1 28.1212 -2.8858 0
11 1 1 -0.415889 3.60998 0
12 1 1 -0.979617 4.76673 0
13 1 1 -1.41276 6.01601 0
14 1 1 -1.43815 7.33801 0
15 1 1 -0.950543 8.57152 0
16 1 1 -0.0420657 9.5312 0
17 1 1 1.0701 10.2297 0
18 1 1 2.18844 10.9185 0
19 1 1 3.10288 11.8763 0
20 1 1 3.52679 13.1424 0
21 1 1 3.24824 14.4527 0
22 1 1 2.32204 15.4229 0
23 1 1 1.09256 15.8692 0
24 1 1 -0.828567 1.18458 0
25 1 1 -1.43211 0.047185 0
26 1 1 -2.01233 -1.13576 0
27 1 1 -2.68631 -2.26073 0
28 1 1 -3.54686 -3.25688 0
29 1 1 -4.61947 -4.0233 0
30 1 1 -5.8612 -4.47055 0
31 1 1 -7.17832 -4.55004 0
32 1 1 -8.46916 -4.28867 0
33 1 1 -9.691 -3.8078 0
34 1 1 -10.9093 -3.31703 0
35 1 1 -12.211 -3.093 0
36 1 1 -13.5112 -3.38858 0
37 1 1 -14.5309 -4.22509 0
38 1 1 1.47674 2.01743 0
39 1 1 2.48232 1.17377 0
40 1 1 3.12917 0.0170263 0
41 1 1 3.46709 -1.25224 0
42 1 1 3.74514 -2.53513 0
43 1 1 4.24436 -3.75584 0
44 1 1 5.12727 -4.74556 0
45 1 1 6.33961 -5.29004 0
46 1 1 7.66554 -5.29662 0
47 1 1 8.9133 -4.86989 0
48 1 1 10.0669 -4.24325 0
49 1 1 11.2681 -3.70548 0
50 1 1 12.5933 -3.57915 0
51 1 1 13.8243 -4.06961 0
52 1 1 -1.09507 16.9998 0
53 1 1 -1.31468 18.2892 0
54 1 1 -0.933397 19.574 0
55 1 1 0.0423142 20.4871 0
56 1 1 1.32417 20.8428 0
57 1 1 2.63916 20.7207 0
58 1 1 3.9006 20.3518 0
59 1 1 5.15784 19.9705 0
60 1 1 6.45957 19.7703 0
61 1 1 7.77423 19.8968 0
62 1 1 8.99032 20.4178 0
63 1 1 9.97736 21.2976 0
64 1 1 10.6652 22.4256 0
65 1 1 11.0832 23.6694 0
66 1 1 11.3169 24.9847 0
67 1 1 -0.984314 14.5408 0
68 1 1 -2.0708 13.7971 0
69 1 1 -3.41008 13.6836 0
70 1 1 -4.59849 14.3013 0
71 1 1 -5.33961 15.4078 0
72 1 1 -5.62562 16.6978 0
73 1 1 -5.65348 18.0121 0
74 1 1 -5.64702 19.3258 0
75 1 1 -5.77093 20.6353 0
76 1 1 -6.11614 21.906 0
77 1 1 -6.70369 23.0849 0
78 1 1 -7.50054 24.1325 0
79 1 1 -8.45031 25.0445 0
80 1 1 -9.4856 25.8462 0
81 1 1 -10.5926 26.5933 0
82 1 1 -16.3845 -5.87909 0
83 1 1 -17.3554 -6.75478 0
84 1 1 -18.1477 -7.80587 0
85 1 1 -19.0753 -8.74199 0
86 1 1 -20.2893 -9.28672 0
87 1 1 -21.6228 -9.20294 0
88 1 1 -22.7467 -8.48156 0
89 1 1 -23.4286 -7.34014 0
90 1 1 -23.6559 -6.03606 0
91 1 1 -23.5691 -4.7267 0
92 1 1 -23.2993 -3.41811 0
93 1 1 -14.0582 -6.64468 0
94 1 1 -13.6981 -7.89442 0
95 1 1 -13.6664 -9.21453 0
96 1 1 -13.7989 -10.519 0
97 1 1 -13.8827 -11.83 0
98 1 1 -13.7756 -13.1409 0
99 1 1 -13.4414 -14.4132 0
100 1 1 -12.9412 -15.6286 0
101 1 1 -12.389 -16.8207 0
102 1 1 -11.9051 -18.0427 0
103 1 1 -11.5788 -19.3187 0
104 1 1 -11.4362 -20.6218 0
105 1 1 -11.4505 -21.9578 0
106 1 1 16.0177 -5.24175 0
107 1 1 17.1911 -5.82423 0
108 1 1 18.1882 -6.69102 0
109 1 1 19.0791 -7.65629 0
110 1 1 20.0079 -8.58766 0
111 1 1 21.074 -9.3625 0
112 1 1 22.3004 -9.85366 0
113 1 1 23.6198 -9.95559 0
114 1 1 24.9021 -9.62626 0
115 1 1 26.0105 -8.90357 0
116 1 1 26.8556 -7.88853 0
117 1 1 27.4233 -6.69725 0
118 1 1 27.7688 -5.43256 0
119 1 1 27.9706 -4.11191 0
120 1 1 13.9232 -6.52246 0
121 1 1 13.7703 -7.81268 0
122 1 1 14.1285 -9.096 0
123 1 1 14.9859 -10.1047 0
124 1 1 16.113 -10.7835 0
125 1 1 17.3009 -11.3383 0
126 1 1 18.3895 -12.0812 0
127 1 1 19.1668 -13.156 0
128 1 1 19.4345 -14.4576 0
129 1 1 19.1607 -15.7559 0
130 1 1 18.4967 -16.8911 0
131 1 1 17.5925 -17.8756 0
ITEM: TIMESTEP
5000
ITEM: NUMBER OF ATOMS
131
ITEM: BOX BOUNDS pp pp pp
-2.0000000000000000e+02 2.0000000000000000e+02
-2.0000000000000000e+02 2.0000000000000000e+02
-2.0000000000000000e+02 2.0000000000000000e+02
ITEM: ATOMS id type mol x y z
1 1 1 -0.253374 2.10176 0.339587
2 1 1 -0.311166 15.8106 -0.145649
3 1 1 -15.1009 -5.8106 -0.093451
4 1 1 14.618 -5.23793 0.199539
5 1 1 12.1562 26.2512 0.143292
6 1 1 -10.9675 28.2915 -0.0843286
7 1 1 -24.3099 -1.9707 0.594273
8 1 1 -10.9069 -23.2843 -0.084699
9 1 1 17.8581 -20.1217 0.806033
10 1 1 28.8122 -3.11219 -0.385581
11 1 1 -0.918851 3.34589 0.635896
12 1 1 -1.38776 4.54739 0.604725
13 1 1 -1.61565 5.85481 0.48756
14 1 1 -1.31598 7.1419 0.345966
15 1 1 -0.628346 8.25824 0.214184
16 1 1 0.314024 9.17218 -0.0377374
17 1 1 1.43846 9.83135 -0.134094
18 1 1 2.53078 10.5701 -0.0554236
19 1 1 3.31314 11.6631 -0.0494784
20 1 1 3.59171 12.9645 0.0273469
21 1 1 3.20748 14.2526 0.116781
22 1 1 2.29884 15.1919 0.0354641
23 1 1 1.10526 15.74 -0.130496
24 1 1 -0.948282 0.874688 0.415532
25 1 1 -1.41892 -0.319648 0.289761
26 1 1 -1.96801 -1.51553 0.257688
27 1 1 -2.7592 -2.58252 0.289941
28 1 1 -3.62179 -3.5575 0.346385
29 1 1 -4.71879 -4.27286 0.224901
30 1 1 -5.96505 -4.69986 0.109466
31 1 1 -7.26706 -4.50809 0.217096
32 1 1 -8.50411 -4.03824 0.3111
33 1 1 -9.71873 -3.49859 0.264728
34 1 1 -10.9633 -3.1337 0.101462
35 1 1 -12.2651 -3.14425 -0.149194
36 1 1 -13.5048 -3.63226 -0.255867
37 1 1 -14.4747 -4.53384 -0.178835
38 1 1 1.16506 2.04577 0.0990564
39 1 1 2.20959 1.24927 -0.0876891
40 1 1 2.95128 0.167127 -0.241369
41 1 1 3.34552 -1.09528 -0.289951
42 1 1 3.65281 -2.36688 -0.215248
43 1 1 4.19972 -3.53363 0.114472
44 1 1 5.12095 -4.49243 0.165752
45 1 1 6.40398 -4.86803 0.360537
46 1 1 7.71226 -4.66519 0.378449
47 1 1 8.9432 -4.24301 0.388842
48 1 1 10.1504 -3.76732 0.367306
49 1 1 11.3943 -3.36535 0.361941
50 1 1 12.744 -3.37036 0.293487
51 1 1 13.8591 -4.01475 0.334002
52 1 1 -0.956802 17.1021 -0.159225
53 1 1 -1.12507 18.3603 -0.155764
54 1 1 -0.814292 19.6731 0.0316818
55 1 1 0.100031 20.6102 0.131672
56 1 1 1.35112 21.089 0.128272
57 1 1 2.68521 21.0172 0.123282
58 1 1 3.93645 20.6772 -0.0298374
59 1 1 5.22197 20.5786 -0.181356
60 1 1 6.52625 20.5029 -0.322565
61 1 1 7.84474 20.6388 -0.377419
62 1 1 9.12696 20.9766 -0.274172
63 1 1 10.2637 21.5982 -0.149371
64 1 1 11.1614 22.5736 -0.132648
65 1 1 11.6184 23.7669 -0.196802
66 1 1 11.992 25.0508 -0.0966804
67 1 1 -1.12621 14.6426 -0.131697
68 1 1 -2.25973 13.987 -0.0845618
69 1 1 -3.5604 13.7413 -0.0527811
70 1 1 -4.80216 14.2602 -0.0614989
71 1 1 -5.67493 15.2962 -0.0134339
72 1 1 -6.07576 16.5303 -0.0171852
73 1 1 -6.46963 17.7921 -0.0722457
74 1 1 -6.62459 19.1174 -0.253798
75 1 1 -6.60429 20.4014 -0.373635
76 1 1 -6.77503 21.6972 -0.450972
77 1 1 -7.20056 22.9668 -0.444491
78 1 1 -7.83556 24.1085 -0.433201
79 1 1 -8.66608 25.1509 -0.372676
80 1 1 -9.33263 26.2733 -0.240603
81 1 1 -10.1485 27.2976 -0.203052
82 1 1 -16.5282 -5.91858 -0.0841095
83 1 1 -17.6632 -6.53979 -0.243189
84 1 1 -18.7521 -7.26338 -0.318595
85 1 1 -19.818 -8.02489 -0.32918
86 1 1 -21.0193 -8.60911 -0.294252
87 1 1 -22.3623 -8.69872 -0.336801
88 1 1 -23.5615 -8.13778 -0.332325
89 1 1 -24.3031 -7.05585 -0.218987
90 1 1 -24.6377 -5.77271 -0.0602031
91 1 1 -24.6326 -4.48975 0.152736
92 1 1 -24.4467 -3.18395 0.376727
93 1 1 -14.2887 -6.97612 -0.0078893
94 1 1 -13.6274 -8.05362 -0.0458719
95 1 1 -13.157 -9.27347 0.133473
96 1 1 -12.9853 -10.588 0.134205
97 1 1 -12.8266 -11.9045 0.0672785
98 1 1 -12.66 -13.1999 -0.106853
99 1 1 -12.7076 -14.5236 -0.0937906
100 1 1 -12.8702 -15.8108 -0.0833478
101 1 1 -12.9618 -17.1434 -0.0589908
102 1 1 -12.7935 -18.4528 -0.0468565
103 1 1 -12.4228 -19.7319 0.104274
104 1 1 -11.9731 -20.9624 0.0735664
105 1 1 -11.4473 -22.1866 0.0798199
106 1 1 15.9991 -5.20133 -0.00999621
107 1 1 17.1905 -5.7055 -0.195557
108 1 1 18.2068 -6.49917 -0.137684
109 1 1 19.0671 -7.51325 -0.088424
110 1 1 20.0577 -8.38542 -0.0930196
111 1 1 21.1439 -9.13201 -0.0737689
112 1 1 22.3689 -9.63454 0.0566806
113 1 1 23.6701 -9.64909 0.0483026
114 1 1 24.9844 -9.47389 0.073191
115 1 1 26.1583 -8.93522 0.197777
116 1 1 27.0703 -7.96479 0.201759
117 1 1 27.6987 -6.80976 -0.024219
118 1 1 28.2394 -5.62179 -0.199399
119 1 1 28.5127 -4.32817 -0.368903
120 1 1 13.9925 -6.52748 0.336659
121 1 1 14.0709 -7.80491 0.168002
122 1 1 14.6988 -8.9749 0.0611903
123 1 1 15.5488 -9.98648 -0.0466655
124 1 1 16.5453 -10.8248 -0.0827178
125 1 1 17.4808 -11.7445 -0.265524
126 1 1 18.2659 -12.8144 -0.329905
127 1 1 18.8072 -13.9885 -0.207192
128 1 1 19.1458 -15.2922 -0.182754
129 1 1 19.0897 -16.5936 0.0182652
130 1 1 18.8907 -17.8845 0.183223
131 1 1 18.3187 -19.0385 0.496621
ITEM: TIMESTEP
10000
ITEM: NUMBER OF ATOMS
131
ITEM: BOX BOUNDS pp pp pp
-2.0000000000000000e+02 2.0000000000000000e+02
-2.0000000000000000e+02 2.0000000000000000e+02
-2.0000000000000000e+02 2.0000000000000000e+02
ITEM: ATOMS id type mol x y z
1 1 1 -0.931943 2.00858 0.25077
2 1 1 -1.09962 16.287 -0.66801
3 1 1 -15.0333 -6.07616 -0.342661
4 1 1 15.3615 -5.1526 0.434322
5 1 1 15.2096 25.0223 -0.908524
6 1 1 -10.5544 28.6469 1.61214
7 1 1 -26.0248 -0.993603 1.15476
8 1 1 -11.8463 -23.6431 0.180205
9 1 1 17.7539 -20.8903 1.57269
10 1 1 30.8972 -2.84861 -0.411002
11 1 1 -1.39651 3.37048 0.480591
12 1 1 -1.42833 4.59316 0.729879
13 1 1 -1.06947 5.86004 0.817948
14 1 1 -0.357314 6.98557 0.787684
15 1 1 0.541649 7.93957 0.812301
16 1 1 1.52434 8.78648 0.884777
17 1 1 2.43295 9.7067 0.762588
18 1 1 3.09154 10.7994 0.535564
19 1 1 3.41062 12.0755 0.301482
20 1 1 3.16608 13.3199 -0.0493242
21 1 1 2.43636 14.4402 -0.280404
22 1 1 1.36387 15.1977 -0.388882
23 1 1 0.191899 15.737 -0.493166
24 1 1 -1.77832 0.923457 0.596425
25 1 1 -2.19795 -0.319142 0.818388
26 1 1 -2.48614 -1.54147 1.19402
27 1 1 -3.07359 -2.6854 1.5068
28 1 1 -4.01622 -3.58023 1.73573
29 1 1 -5.17979 -4.18436 1.73619
30 1 1 -6.50587 -4.30646 1.52041
31 1 1 -7.80364 -4.14347 1.33527
32 1 1 -8.98048 -3.66736 1.00279
33 1 1 -10.1274 -3.11006 0.676893
34 1 1 -11.4054 -2.88331 0.433554
35 1 1 -12.7112 -3.02519 0.195775
36 1 1 -13.848 -3.69651 -0.055634
37 1 1 -14.5859 -4.72917 -0.344531
38 1 1 0.35794 1.74586 -0.279782
39 1 1 1.53218 1.37653 -0.755923
40 1 1 2.5739 0.684981 -1.09038
41 1 1 3.57267 -0.15441 -1.17781
42 1 1 4.29545 -1.23351 -1.1642
43 1 1 5.07396 -2.21425 -0.684517
44 1 1 5.891 -3.0397 -0.0963278
45 1 1 6.95938 -3.44063 0.618998
46 1 1 8.13985 -3.63012 1.17984
47 1 1 9.3762 -3.60835 1.66035
48 1 1 10.6641 -3.52213 1.70777
49 1 1 11.9417 -3.53632 1.46927
50 1 1 13.2077 -3.70581 1.09948
51 1 1 14.4699 -4.15999 0.838712
52 1 1 -1.25306 17.7273 -0.583851
53 1 1 -1.01693 19.0136 -0.62302
54 1 1 -0.385825 20.1964 -0.536235
55 1 1 0.603847 21.067 -0.334121
56 1 1 1.7049 21.695 -0.101157
57 1 1 3.00342 21.9574 0.0530171
58 1 1 4.31199 21.9268 0.20517
59 1 1 5.62487 21.7224 0.156667
60 1 1 6.89959 21.6644 -0.187442
61 1 1 8.22612 21.7164 -0.213019
62 1 1 9.54077 21.9276 -0.228145
63 1 1 10.8381 22.3112 -0.279417
64 1 1 12.027 22.7951 -0.510175
65 1 1 13.1227 23.5356 -0.680822
66 1 1 14.2476 24.2523 -0.789414
67 1 1 -2.24966 15.4877 -0.776838
68 1 1 -3.43944 14.9932 -0.630908
69 1 1 -4.76837 14.8603 -0.544321
70 1 1 -6.06042 15.1869 -0.724284
71 1 1 -7.08325 15.9475 -1.02859
72 1 1 -7.84808 17.0023 -1.30278
73 1 1 -8.3734 18.1437 -1.70006
74 1 1 -8.77452 19.3718 -2.02236
75 1 1 -8.98161 20.6409 -1.91003
76 1 1 -9.18406 21.9426 -1.72984
77 1 1 -9.04371 23.2237 -1.34315
78 1 1 -9.19336 24.4236 -0.94201
79 1 1 -9.26847 25.6056 -0.36499
80 1 1 -9.49402 26.7961 0.243581
81 1 1 -10.0095 27.7962 0.985845
82 1 1 -16.3612 -6.4231 -0.760505
83 1 1 -17.584 -6.84318 -0.966053
84 1 1 -18.836 -7.19896 -0.859919
85 1 1 -20.1034 -7.51901 -0.659431
86 1 1 -21.3258 -7.72722 -0.148478
87 1 1 -22.521 -7.51047 0.329801
88 1 1 -23.6165 -6.89125 0.749431
89 1 1 -24.4812 -5.90837 1.10016
90 1 1 -25.0731 -4.76817 1.42902
91 1 1 -25.5455 -3.51052 1.46732
92 1 1 -25.7969 -2.1934 1.3306
93 1 1 -14.1025 -7.12376 0.0498772
94 1 1 -13.5154 -8.26754 0.0605234
95 1 1 -12.9227 -9.44485 0.171878
96 1 1 -12.4197 -10.6675 0.20732
97 1 1 -12.0353 -11.9059 0.310038
98 1 1 -11.9859 -13.2244 0.203154
99 1 1 -11.9108 -14.5634 0.268688
100 1 1 -11.843 -15.8735 0.345392
101 1 1 -11.8173 -17.1578 0.39094
102 1 1 -11.6714 -18.5023 0.402575
103 1 1 -11.7381 -19.7811 0.405517
104 1 1 -11.7919 -21.1124 0.402881
105 1 1 -11.8675 -22.413 0.162846
106 1 1 16.7864 -4.93311 0.62156
107 1 1 18.0108 -5.40418 0.4661
108 1 1 19.0227 -6.19319 0.149747
109 1 1 20.1069 -6.96073 0.135753
110 1 1 21.2275 -7.70462 0.174474
111 1 1 22.3291 -8.364 0.2446
112 1 1 23.559 -8.80141 0.441871
113 1 1 24.8572 -8.98431 0.620966
114 1 1 26.1314 -8.57157 0.758888
115 1 1 27.2976 -8.00545 0.719033
116 1 1 28.34 -7.21577 0.489481
117 1 1 29.2724 -6.30138 0.297957
118 1 1 30.0568 -5.25952 0.0377623
119 1 1 30.5915 -4.03162 -0.171433
120 1 1 14.9516 -6.44095 0.00368166
121 1 1 14.8752 -7.64995 -0.375248
122 1 1 14.9211 -8.92726 -0.777495
123 1 1 15.4411 -10.0562 -1.15524
124 1 1 15.8807 -11.3178 -1.26905
125 1 1 16.4885 -12.4994 -1.16722
126 1 1 17.0088 -13.6973 -1.12018
127 1 1 17.5094 -14.8969 -0.77728
128 1 1 17.7786 -16.1326 -0.400447
129 1 1 17.9574 -17.3387 0.0485065
130 1 1 18.0829 -18.5769 0.48563
131 1 1 17.8494 -19.7929 0.976791
ITEM: TIMESTEP
15000
ITEM: NUMBER OF ATOMS
131
ITEM: BOX BOUNDS pp pp pp
-2.0000000000000000e+02 2.0000000000000000e+02
-2.0000000000000000e+02 2.0000000000000000e+02
-2.0000000000000000e+02 2.0000000000000000e+02
ITEM: ATOMS id type mol x y z
1 1 1 -1.13439 2.0825 -0.256263
2 1 1 -1.13099 16.7273 -0.0801061
3 1 1 -15.0866 -6.50969 -1.56057
4 1 1 15.294 -6.11736 0.520635
5 1 1 16.488 23.1399 -0.418672
6 1 1 -9.94084 29.3561 0.591674
7 1 1 -27.4688 -0.655935 2.30932
8 1 1 -12.8497 -23.5745 -0.295504
9 1 1 19.8568 -20.2283 1.86488
10 1 1 32.0289 -3.15383 -1.0236
11 1 1 -1.08927 3.45589 0.102863
12 1 1 -0.594846 4.58947 0.497368
13 1 1 0.115717 5.65872 0.780005
14 1 1 0.845625 6.70661 0.866602
15 1 1 1.68604 7.72829 0.764671
16 1 1 2.52384 8.72725 0.557835
17 1 1 3.1568 9.87024 0.344845
18 1 1 3.5695 11.1043 0.148846
19 1 1 3.57654 12.4021 -0.00523422
20 1 1 3.21218 13.6612 -0.00351599
21 1 1 2.35327 14.6667 -0.0463275
22 1 1 1.23099 15.4457 0.00323127
23 1 1 0.156564 16.0582 -0.042623
24 1 1 -1.97259 1.18274 0.533054
25 1 1 -2.3805 0.151985 1.27589
26 1 1 -2.65518 -0.904755 1.9504
27 1 1 -3.24275 -1.9859 2.49803
28 1 1 -4.09093 -2.91711 2.7645
29 1 1 -5.25144 -3.58153 2.80665
30 1 1 -6.45489 -3.95718 2.51982
31 1 1 -7.65061 -4.1872 1.94771
32 1 1 -8.76934 -4.06558 1.26256
33 1 1 -9.81682 -3.8589 0.570211
34 1 1 -10.9288 -3.92708 -0.108096
35 1 1 -12.1631 -4.04103 -0.649102
36 1 1 -13.2036 -4.61212 -1.23481
37 1 1 -14.1964 -5.37392 -1.60725
38 1 1 -0.231289 1.52984 -1.19796
39 1 1 0.696579 0.866461 -1.82697
40 1 1 1.77821 0.115208 -2.09822
41 1 1 2.87229 -0.579759 -2.0014
42 1 1 4.00806 -1.19829 -1.70987
43 1 1 5.04117 -1.82506 -1.14983
44 1 1 6.09213 -2.37116 -0.611981
45 1 1 7.06992 -2.85914 0.0704978
46 1 1 8.16338 -3.35732 0.653037
47 1 1 9.3902 -3.61369 1.06159
48 1 1 10.6949 -3.87397 1.29686
49 1 1 11.9504 -4.17197 1.36391
50 1 1 13.2454 -4.58832 1.32418
51 1 1 14.3266 -5.20511 1.0897
52 1 1 -1.14069 18.1661 -0.142346
53 1 1 -0.736467 19.4017 -0.185243
54 1 1 -0.0692371 20.5305 -0.174443
55 1 1 0.919652 21.3987 -0.120649
56 1 1 2.15266 21.8917 -0.220354
57 1 1 3.46374 21.9923 -0.245221
58 1 1 4.80164 22.0391 -0.319859
59 1 1 6.08723 22.0765 -0.19289
60 1 1 7.42135 22.2135 -0.0652957
61 1 1 8.71701 22.2586 -0.0105033
62 1 1 10.0344 22.3079 0.072157
63 1 1 11.3448 22.5181 -0.0075892
64 1 1 12.6405 22.665 -0.0634838
65 1 1 13.9519 22.7793 -0.165326
66 1 1 15.2722 22.9727 -0.258293
67 1 1 -2.32422 15.973 -0.00595734
68 1 1 -3.51926 15.4698 -0.0929635
69 1 1 -4.78299 15.2071 -0.399406
70 1 1 -5.98592 15.3504 -0.874079
71 1 1 -7.02047 16.0315 -1.35842
72 1 1 -7.99722 16.9377 -1.57267
73 1 1 -8.75344 17.9739 -1.62403
74 1 1 -9.214 19.2327 -1.59356
75 1 1 -9.42479 20.4953 -1.38503
76 1 1 -9.54198 21.7596 -1.08386
77 1 1 -9.56236 23.0609 -0.784962
78 1 1 -9.6341 24.3295 -0.738557
79 1 1 -9.75972 25.6531 -0.633252
80 1 1 -9.79414 26.9197 -0.2559
81 1 1 -9.90506 28.1926 0.126982
82 1 1 -16.4895 -6.29351 -1.71914
83 1 1 -17.7595 -6.39312 -1.77272
84 1 1 -19.0556 -6.60467 -1.48081
85 1 1 -20.2546 -6.5667 -0.987777
86 1 1 -21.5121 -6.3946 -0.527077
87 1 1 -22.6819 -6.05965 -0.072625
88 1 1 -23.7995 -5.5814 0.434259
89 1 1 -24.8135 -4.91786 0.951748
90 1 1 -25.5521 -3.97978 1.48561
91 1 1 -26.3193 -2.95026 1.846
92 1 1 -26.9028 -1.79185 2.10546
93 1 1 -14.5814 -7.83669 -1.43858
94 1 1 -14.017 -8.94867 -1.11711
95 1 1 -13.5678 -10.0812 -0.570578
96 1 1 -13.0012 -11.0961 -0.000745233
97 1 1 -12.6106 -12.2814 0.486496
98 1 1 -12.4674 -13.5434 0.878781
99 1 1 -12.2751 -14.8122 1.11948
100 1 1 -12.0154 -16.1112 1.19951
101 1 1 -11.7944 -17.3828 1.11598
102 1 1 -11.7037 -18.711 0.953167
103 1 1 -11.7989 -20.0033 0.730454
104 1 1 -12.0562 -21.2435 0.432242
105 1 1 -12.4415 -22.5139 0.168479
106 1 1 16.6394 -6.09423 1.00328
107 1 1 17.9017 -6.30161 1.09001
108 1 1 19.1912 -6.58702 1.17602
109 1 1 20.4048 -7.05994 1.30965
110 1 1 21.6891 -7.39151 1.2796
111 1 1 22.9713 -7.67361 1.23389
112 1 1 24.2844 -7.86687 1.37903
113 1 1 25.5487 -8.06854 1.375
114 1 1 26.883 -8.08306 1.40131
115 1 1 28.102 -7.71416 1.01355
116 1 1 29.184 -7.1156 0.57414
117 1 1 30.1237 -6.31395 0.15638
118 1 1 30.9186 -5.36388 -0.239009
119 1 1 31.4785 -4.22256 -0.640247
120 1 1 14.9706 -7.01064 -0.515052
121 1 1 14.8898 -8.12985 -1.14755
122 1 1 15.068 -9.30619 -1.68204
123 1 1 15.2733 -10.5668 -1.88875
124 1 1 15.4771 -11.8531 -2.03361
125 1 1 15.7675 -13.1443 -1.97785
126 1 1 16.2556 -14.3423 -1.77181
127 1 1 16.7519 -15.4336 -1.27601
128 1 1 17.3413 -16.4837 -0.71936
129 1 1 18.0848 -17.4509 -0.142534
130 1 1 18.6476 -18.3935 0.539504
131 1 1 19.2875 -19.3565 1.25945
ITEM: TIMESTEP
20000
ITEM: NUMBER OF ATOMS
131
ITEM: BOX BOUNDS pp pp pp
-2.0000000000000000e+02 2.0000000000000000e+02
-2.0000000000000000e+02 2.0000000000000000e+02
-2.0000000000000000e+02 2.0000000000000000e+02
ITEM: ATOMS id type mol x y z
1 1 1 -0.636419 2.17668 0.640569
2 1 1 -1.11484 16.8322 -0.23794
3 1 1 -15.5912 -7.23093 -2.30796
4 1 1 15.367 -6.2173 0.644458
5 1 1 16.4937 22.0858 1.24624
6 1 1 -10.2574 29.3038 0.138802
7 1 1 -27.6788 -1.2656 2.3566
8 1 1 -12.7155 -24.2827 -0.458881
9 1 1 19.841 -20.7603 1.07482
10 1 1 33.1244 -3.75331 -1.18814
11 1 1 -0.335885 3.51347 1.00285
12 1 1 0.179168 4.63526 1.3371
13 1 1 0.825094 5.74145 1.75244
14 1 1 1.69411 6.7333 1.88414
15 1 1 2.63168 7.71914 1.98754
16 1 1 3.35495 8.78591 1.6321
17 1 1 3.75473 9.99928 1.28615
18 1 1 3.9489 11.286 1.02231
19 1 1 3.70373 12.5345 0.690782
20 1 1 3.1207 13.678 0.390507
21 1 1 2.13976 14.509 0.0942346
22 1 1 1.09588 15.2417 -0.169641
23 1 1 0.0682335 16.0316 -0.336834
24 1 1 -1.45426 1.33824 1.44692
25 1 1 -2.17612 0.343258 1.89934
26 1 1 -2.92258 -0.595233 2.40618
27 1 1 -3.7598 -1.55753 2.70887
28 1 1 -4.74376 -2.45894 2.7708
29 1 1 -5.84723 -3.12748 2.59586
30 1 1 -6.96246 -3.64879 2.16138
31 1 1 -8.12982 -4.06806 1.75125
32 1 1 -9.30616 -4.31552 1.17159
33 1 1 -10.391 -4.47992 0.436802
34 1 1 -11.5066 -4.68672 -0.244526
35 1 1 -12.6029 -4.97714 -0.836437
36 1 1 -13.66 -5.5719 -1.41133
37 1 1 -14.6942 -6.15793 -1.94937
38 1 1 -0.0505574 1.63516 -0.564775
39 1 1 0.685417 0.872958 -1.31651
40 1 1 1.49575 -0.111053 -1.64149
41 1 1 2.48394 -0.999373 -1.78243
42 1 1 3.62403 -1.57589 -1.56763
43 1 1 4.76572 -2.08003 -1.13511
44 1 1 5.84848 -2.66193 -0.587998
45 1 1 6.96976 -3.20136 -0.19866
46 1 1 8.07451 -3.68983 0.249314
47 1 1 9.26669 -4.05968 0.613976
48 1 1 10.5413 -4.22336 0.86695
49 1 1 11.8011 -4.50152 1.14681
50 1 1 13.0465 -4.93972 1.25519
51 1 1 14.217 -5.4826 1.13767
52 1 1 -1.00277 18.2638 -0.0925326
53 1 1 -0.582088 19.4733 -0.112676
54 1 1 0.168661 20.5764 -0.204788
55 1 1 1.20381 21.4074 -0.00309747
56 1 1 2.40184 21.9488 0.0450667
57 1 1 3.67875 22.2763 -0.210017
58 1 1 4.99597 22.4955 -0.389457
59 1 1 6.29173 22.3535 -0.389337
60 1 1 7.58457 22.1545 -0.398208
61 1 1 8.86506 22.0071 -0.262847
62 1 1 10.1398 21.7278 -0.091292
63 1 1 11.4554 21.5833 0.212547
64 1 1 12.7277 21.6676 0.404107
65 1 1 13.9969 21.7609 0.75232
66 1 1 15.2794 21.8791 1.01765
67 1 1 -2.40742 16.2399 -0.281793
68 1 1 -3.65071 15.9053 -0.396038
69 1 1 -4.96074 15.7662 -0.584722
70 1 1 -6.28377 15.9791 -0.560121
71 1 1 -7.5092 16.4186 -0.622123
72 1 1 -8.55184 17.2295 -0.761327
73 1 1 -9.40552 18.1795 -1.04086
74 1 1 -10.0036 19.3431 -1.36234
75 1 1 -10.2697 20.5727 -1.70486
76 1 1 -10.5168 21.8366 -1.67741
77 1 1 -10.576 23.1575 -1.46642
78 1 1 -10.691 24.463 -1.42585
79 1 1 -10.7718 25.7404 -1.31427
80 1 1 -10.7081 27.0199 -0.984155
81 1 1 -10.5069 28.2024 -0.356747
82 1 1 -16.989 -6.95405 -2.50416
83 1 1 -18.2487 -6.79305 -2.3148
84 1 1 -19.4799 -6.63192 -1.96601
85 1 1 -20.7664 -6.47568 -1.67481
86 1 1 -21.9823 -6.59333 -1.20537
87 1 1 -23.21 -6.39076 -0.702176
88 1 1 -24.3188 -5.90825 -0.26919
89 1 1 -25.3795 -5.26071 0.157934
90 1 1 -26.232 -4.41067 0.65875
91 1 1 -26.8414 -3.37111 1.18319
92 1 1 -27.3031 -2.27181 1.74605
93 1 1 -15.1502 -8.58105 -2.32273
94 1 1 -14.4878 -9.67546 -2.06426
95 1 1 -13.7422 -10.6789 -1.6029
96 1 1 -13.1504 -11.6956 -1.02551
97 1 1 -12.585 -12.7322 -0.445416
98 1 1 -12.1756 -13.916 0.00309722
99 1 1 -12.0161 -15.2454 0.159293
100 1 1 -12.0471 -16.5458 0.26163
101 1 1 -12.0926 -17.8771 0.262821
102 1 1 -12.2566 -19.2034 0.240648
103 1 1 -12.4 -20.5008 0.216726
104 1 1 -12.5683 -21.7714 -0.0687877
105 1 1 -12.5418 -23.0952 -0.311088
106 1 1 16.6544 -5.90425 1.14178
107 1 1 17.8573 -6.06595 1.44593
108 1 1 19.0672 -6.4199 1.86154
109 1 1 20.3243 -6.79554 2.18277
110 1 1 21.6033 -7.16223 2.21012
111 1 1 22.8369 -7.40298 1.9719
112 1 1 24.1264 -7.66941 1.73081
113 1 1 25.4174 -7.65345 1.43002
114 1 1 26.6412 -7.30231 1.09223
115 1 1 27.8466 -6.90454 0.864849
116 1 1 29.0146 -6.41737 0.438964
117 1 1 30.0926 -5.8678 -0.0254022
118 1 1 31.0896 -5.1531 -0.526438
119 1 1 32.0533 -4.3213 -0.868653
120 1 1 15.1823 -7.32741 -0.209705
121 1 1 14.9581 -8.4037 -0.906009
122 1 1 14.9248 -9.63308 -1.43039
123 1 1 15.0099 -10.9517 -1.61985
124 1 1 15.1157 -12.2441 -1.81481
125 1 1 15.4636 -13.4927 -2.01471
126 1 1 16.0044 -14.6748 -1.85053
127 1 1 16.5949 -15.8175 -1.54281
128 1 1 17.2381 -16.8735 -1.12849
129 1 1 17.9542 -17.8985 -0.67927
130 1 1 18.6397 -18.8186 -0.111701
131 1 1 19.3354 -19.803 0.494044
