ITEM: TIMESTEP
0
ITEM: NUMBER OF ATOMS
8
ITEM: BOX BOUNDS pp pp pp
-1.5000000000000000e+01 1.5000000000000000e+01
-1.5000000000000000e+01 1.5000000000000000e+01
-1.5000000000000000e+01 1.5000000000000000e+01
ITEM: ATOMS id type x y z
6 1 0 -2 -2
7 1 0 0 -2
5 1 0 -2 0
1 1 0 0 0
2 1 0 2 0
4 1 0 0 2
3 1 0 2 2
8 1 0 1 1
ITEM: TIMESTEP
5000
ITEM: NUMBER OF ATOMS
8
ITEM: BOX BOUNDS pp pp pp
-1.5000000000000000e+01 1.5000000000000000e+01
-1.5000000000000000e+01 1.5000000000000000e+01
-1.5000000000000000e+01 1.5000000000000000e+01
ITEM: ATOMS id type x y z
4 1 -3.84852 -3.302 -1.49807
1 1 -4.51463 -3.95373 -2.45867
2 1 -4.23714 -3.05413 -1.58026
7 1 -5.08138 -5.56796 -2.92088
5 1 -5.10143 -5.08158 -2.09627
3 1 -4.41002 -4.20909 -2.50719
6 1 -5.63757 -4.09803 -2.91952
8 1 3.71599 12.3857 5.85042
ITEM: TIMESTEP
10000
ITEM: NUMBER OF ATOMS
8
ITEM: BOX BOUNDS pp pp pp
-1.5000000000000000e+01 1.5000000000000000e+01
-1.5000000000000000e+01 1.5000000000000000e+01
-1.5000000000000000e+01 1.5000000000000000e+01
ITEM: ATOMS id type x y z
8 1 2.69552 -7.07601 -12.2578
5 1 -5.35576 0.241057 0.447962
7 1 -5.76476 -1.52736 1.35141
6 1 -4.4637 -0.920175 1.15211
1 1 -5.82677 -0.57692 1.86333
3 1 -5.95861 -2.22108 3.50601
4 1 -4.86822 -1.31841 2.98651
2 1 -6.33154 -0.626533 3.39198
ITEM: TIMESTEP
15000
ITEM: NUMBER OF ATOMS
8
ITEM: BOX BOUNDS pp pp pp
-1.5000000000000000e+01 1.5000000000000000e+01
-1.5000000000000000e+01 1.5000000000000000e+01
-1.5000000000000000e+01 1.5000000000000000e+01
ITEM: ATOMS id type x y z
8 1 9.61995 -9.66504 -6.41488
3 1 -6.08322 -0.14826 2.85055
6 1 -4.54248 0.164061 0.740708
5 1 -5.40571 0.935248 -0.480433
1 1 -4.75738 0.265695 0.792945
4 1 -4.58828 -0.407909 2.26845
2 1 -4.81761 0.0372485 2.33102
7 1 -5.4761 -0.867255 -0.0745441
ITEM: TIMESTEP
20000
ITEM: NUMBER OF ATOMS
8
ITEM: BOX BOUNDS pp pp pp
-1.5000000000000000e+01 1.5000000000000000e+01
-1.5000000000000000e+01 1.5000000000000000e+01
-1.5000000000000000e+01 1.5000000000000000e+01
ITEM: ATOMS id type x y z
1 1 -3.22074 0.452327 -4.31711
7 1 -4.32115 -0.0815779 -5.49063
2 1 -2.621 0.811606 -3.05349
6 1 -3.49874 0.940143 -4.61814
3 1 -3.14363 -0.688342 -2.48136
5 1 -2.7699 1.05137 -3.15964
4 1 -3.37534 -0.722585 -3.87385
8 1 -0.123944 5.02301 14.6817
ITEM: TIMESTEP
25000
ITEM: NUMBER OF ATOMS
8
ITEM: BOX BOUNDS pp pp pp
-1.5000000000000000e+01 1.5000000000000000e+01
-1.5000000000000000e+01 1.5000000000000000e+01
-1.5000000000000000e+01 1.5000000000000000e+01
ITEM: ATOMS id type x y z
7 1 3.77201 4.95504 -0.180886
1 1 5.0016 4.43307 -0.995818
6 1 5.02643 4.05196 0.348522
2 1 6.47657 4.18688 -0.86046
5 1 6.17144 4.92024 -0.0768435
4 1 4.57094 5.18865 -2.16121
3 1 5.94681 5.1669 -1.85734
8 1 2.46402 -10.0224 6.46189
ITEM: TIMESTEP
30000
ITEM: NUMBER OF ATOMS
8
ITEM: BOX BOUNDS pp pp pp
-1.5000000000000000e+01 1.5000000000000000e+01
-1.5000000000000000e+01 1.5000000000000000e+01
-1.5000000000000000e+01 1.5000000000000000e+01
ITEM: ATOMS id type x y z
6 1 5.76539 1.80064 -10.3388
1 1 5.87583 2.71877 -9.65109
7 1 5.71904 3.12352 -11.2394
3 1 6.65736 2.36023 -9.9057
5 1 6.606 2.61366 -11.0826
4 1 5.32039 2.26675 -10.7761
2 1 6.59899 2.51634 -8.40059
8 1 -8.48649 14.895 -0.789286
ITEM: TIMESTEP
35000
ITEM: NUMBER OF ATOMS
8
ITEM: BOX BOUNDS pp pp pp
-1.5000000000000000e+01 1.5000000000000000e+01
-1.5000000000000000e+01 1.5000000000000000e+01
-1.5000000000000000e+01 1.5000000000000000e+01
ITEM: ATOMS id type x y z
8 1 -13.2918 -5.04301 2.44347
5 1 5.11409 4.40671 14.1901
1 1 4.33541 5.06349 -14.7816
6 1 3.77065 4.90474 14.454
7 1 4.04928 3.66316 -14.5373
2 1 4.09902 4.07624 14.2508
4 1 3.88978 3.93721 -14.0158
3 1 2.8273 4.54739 -14.7809
ITEM: TIMESTEP
40000
ITEM: NUMBER OF ATOMS
8
ITEM: BOX BOUNDS pp pp pp
-1.5000000000000000e+01 1.5000000000000000e+01
-1.5000000000000000e+01 1.5000000000000000e+01
-1.5000000000000000e+01 1.5000000000000000e+01
ITEM: ATOMS id type x y z
3 1 8.9626 8.78004 -13.665
2 1 8.41514 8.12592 -14.8201
1 1 9.15255 9.14761 -14.6217
6 1 8.33721 10.1303 -14.231
5 1 9.58062 10.7564 -14.2672
8 1 -10.8327 2.21176 -12.7949
4 1 9.88841 9.78973 -13.4002
7 1 8.10836 9.34656 14.4323
ITEM: TIMESTEP
45000
ITEM: NUMBER OF ATOMS
8
ITEM: BOX BOUNDS pp pp pp
-1.5000000000000000e+01 1.5000000000000000e+01
-1.5000000000000000e+01 1.5000000000000000e+01
-1.5000000000000000e+01 1.5000000000000000e+01
ITEM: ATOMS id type x y z
3 1 13.2617 8.17983 -12.5884
1 1 13.1436 6.14739 -11.1363
7 1 12.5013 7.62954 -11.6685
2 1 14.0573 7.03123 -11.9417
5 1 13.5843 7.54289 -11.6099
4 1 14.0293 7.33453 -11.2499
6 1 13.2066 6.55578 -10.5735
8 1 -5.70075 8.87939 6.17941
ITEM: TIMESTEP
50000
ITEM: NUMBER OF ATOMS
8
ITEM: BOX BOUNDS pp pp pp
-1.5000000000000000e+01 1.5000000000000000e+01
-1.5000000000000000e+01 1.5000000000000000e+01
-1.5000000000000000e+01 1.5000000000000000e+01
ITEM: ATOMS id type x y z
5 1 -12.2003 8.84656 -9.57683
6 1 -12.538 7.79286 -8.33771
1 1 -13.0889 8.08601 -8.41249
2 1 -13.2271 9.63091 -8.85566
4 1 -12.6507 9.31517 -8.91653
3 1 -12.2152 10.8247 -9.21634
7 1 -13.072 6.68259 -7.6166
8 1 -10.6865 -4.29956 -3.38494
ITEM: TIMESTEP
55000
ITEM: NUMBER OF ATOMS
8
ITEM: BOX BOUNDS pp pp pp
-1.5000000000000000e+01 1.5000000000000000e+01
-1.5000000000000000e+01 1.5000000000000000e+01
-1.5000000000000000e+01 1.5000000000000000e+01
ITEM: ATOMS id type x y z
4 1 -12.7578 14.3984 -6.68266
7 1 -12.5154 14.0759 -6.86226
5 1 -12.3828 14.2122 -7.28278
1 1 -11.2505 -14.8992 -7.07164
3 1 -11.1334 14.4277 -7.17648
6 1 -13.5536 13.2724 -7.66749
2 1 -12.0426 -14.8969 -8.29122
8 1 -13.1265 4.3006 -14.7873
ITEM: TIMESTEP
60000
ITEM: NUMBER OF ATOMS
8
ITEM: BOX BOUNDS pp pp pp
-1.5000000000000000e+01 1.5000000000000000e+01
-1.5000000000000000e+01 1.5000000000000000e+01
-1.5000000000000000e+01 1.5000000000000000e+01
ITEM: ATOMS id type x y z
2 1 10.6074 11.6437 -5.38768
1 1 11.427 12.3564 -6.45308
5 1 10.6746 13.0448 -5.55607
3 1 9.34759 10.8467 -5.30377
7 1 11.1116 12.5892 -4.93231
6 1 9.81622 11.8422 -4.95018
4 1 10.9617 11.044 -5.53034
8 1 13.4476 8.88006 -9.01049
ITEM: TIMESTEP
65000
ITEM: NUMBER OF ATOMS
8
ITEM: BOX BOUNDS pp pp pp
-1.5000000000000000e+01 1.5000000000000000e+01
-1.5000000000000000e+01 1.5000000000000000e+01
-1.5000000000000000e+01 1.5000000000000000e+01
ITEM: ATOMS id type x y z
7 1 1.5252 -11.8689 -1.8348
6 1 2.48786 -12.0631 -0.742031
1 1 2.96549 -11.7247 -1.98962
5 1 1.97306 -10.901 -1.42544
3 1 2.98575 -13.4605 -2.74778
2 1 3.23654 -13.045 -1.37949
4 1 3.42123 -12.3499 -3.40202
8 1 14.2499 -12.0128 9.76932
ITEM: TIMESTEP
70000
ITEM: NUMBER OF ATOMS
8
ITEM: BOX BOUNDS pp pp pp
-1.5000000000000000e+01 1.5000000000000000e+01
-1.5000000000000000e+01 1.5000000000000000e+01
-1.5000000000000000e+01 1.5000000000000000e+01
ITEM: ATOMS id type x y z
4 1 1.01963 -11.0236 -6.06435
3 1 0.88271 -9.90214 -4.76264
6 1 1.16778 -10.5931 -6.63617
1 1 1.78622 -10.2996 -4.93068
5 1 1.24315 -9.34957 -6.09159
7 1 2.55717 -9.77114 -6.08059
2 1 0.6279 -11.3321 -4.65858
8 1 10.003 -8.78605 2.64868
ITEM: TIMESTEP
75000
ITEM: NUMBER OF ATOMS
8
ITEM: BOX BOUNDS pp pp pp
-1.5000000000000000e+01 1.5000000000000000e+01
-1.5000000000000000e+01 1.5000000000000000e+01
-1.5000000000000000e+01 1.5000000000000000e+01
ITEM: ATOMS id type x y z
2 1 -4.18033 -6.81363 -5.00456
4 1 -3.60793 -6.3216 -5.12111
7 1 -4.07719 -7.29377 -4.71233
6 1 -2.77335 -7.36574 -3.9024
3 1 -3.45325 -6.29945 -3.63253
1 1 -3.46904 -6.42544 -3.63027
5 1 -3.00397 -7.49315 -2.48817
8 1 7.97577 3.70367 10.3006
ITEM: TIMESTEP
80000
ITEM: NUMBER OF ATOMS
8
ITEM: BOX BOUNDS pp pp pp
-1.5000000000000000e+01 1.5000000000000000e+01
-1.5000000000000000e+01 1.5000000000000000e+01
-1.5000000000000000e+01 1.5000000000000000e+01
ITEM: ATOMS id type x y z
8 1 14.3096 5.06216 -12.56
7 1 -1.01101 -8.33893 -5.40078
1 1 -1.52107 -6.99114 -5.55273
2 1 -2.24514 -6.93894 -6.97274
4 1 -2.35078 -5.86692 -4.85836
6 1 -1.25898 -7.24272 -4.79043
5 1 -0.00613276 -6.63311 -5.45662
3 1 -2.65776 -7.10756 -5.4387
ITEM: TIMESTEP
85000
ITEM: NUMBER OF ATOMS
8
ITEM: BOX BOUNDS pp pp pp
-1.5000000000000000e+01 1.5000000000000000e+01
-1.5000000000000000e+01 1.5000000000000000e+01
-1.5000000000000000e+01 1.5000000000000000e+01
ITEM: ATOMS id type x y z
8 1 3.98012 3.05924 -7.77563
4 1 -1.80128 -8.65062 -1.20718
6 1 -0.488651 -7.54353 -2.25314
2 1 -0.181483 -9.21035 0.669097
5 1 -1.60706 -8.41042 -1.44314
1 1 -0.466868 -9.06765 -0.754139
3 1 -1.06064 -9.86449 -0.205346
7 1 0.389539 -8.03677 -1.07655
ITEM: TIMESTEP
90000
ITEM: NUMBER OF ATOMS
8
ITEM: BOX BOUNDS pp pp pp
-1.5000000000000000e+01 1.5000000000000000e+01
-1.5000000000000000e+01 1.5000000000000000e+01
-1.5000000000000000e+01 1.5000000000000000e+01
ITEM: ATOMS id type x y z
7 1 0.573122 -1.05571 -2.96111
1 1 0.586005 -1.85911 -1.77936
3 1 1.45842 -3.88399 -0.644922
6 1 1.43787 -1.24186 -1.716
4 1 1.83821 -2.63689 -1.30234
5 1 2.03416 -2.24719 -1.2327
2 1 0.652233 -2.53949 -0.348916
8 1 11.6446 14.4167 -14.8771
ITEM: TIMESTEP
95000
ITEM: NUMBER OF ATOMS
8
ITEM: BOX BOUNDS pp pp pp
-1.5000000000000000e+01 1.5000000000000000e+01
-1.5000000000000000e+01 1.5000000000000000e+01
-1.5000000000000000e+01 1.5000000000000000e+01
ITEM: ATOMS id type x y z
6 1 2.95249 -0.879767 -0.749021
1 1 2.51665 -0.873509 -1.15066
5 1 2.81156 0.590892 -1.45029
7 1 2.08904 -0.433756 0.0535905
4 1 1.94287 0.348816 -0.457984
2 1 2.79231 -0.466842 0.309619
3 1 2.52939 0.86345 0.898743
8 1 12.0436 -4.52699 8.53224
ITEM: TIMESTEP
100000
ITEM: NUMBER OF ATOMS
8
ITEM: BOX BOUNDS pp pp pp
-1.5000000000000000e+01 1.5000000000000000e+01
-1.5000000000000000e+01 1.5000000000000000e+01
-1.5000000000000000e+01 1.5000000000000000e+01
ITEM: ATOMS id type x y z
8 1 3.2362 5.99994 -5.85914
2 1 1.45347 2.10284 -0.820496
4 1 2.08508 2.47168 -0.754221
5 1 0.900564 4.34399 -0.933545
7 1 1.75673 4.28357 -0.0230144
6 1 1.50009 5.57775 -0.366229
1 1 1.61065 3.45626 -1.39803
3 1 2.984 1.26431 -0.703705
